<VTKFile type="UnstructuredGrid" version="1.0" byte_order="LittleEndian" header_type="UInt64">
  <UnstructuredGrid>
    <Piece NumberOfPoints="178" NumberOfCells="177">
      <PointData Scalars="bulk_node_ids">
        <DataArray type="UInt64" Name="bulk_node_ids" format="ascii" RangeMin="16" RangeMax="12651">
          17 16 19 66 65 93
          92 189 188 266 265 351
          350 364 363 445 444 563
          562 788 787 1153 1152 1716
          1715 1683 2040 2094 2301 2578
          1870 2718 1981 2742 2741 2756
          3106 3119 2959 3194 3193 3234
          3233 1043 3278 3417 501 3509
          3508 3007 2266 3868 3867 3875
          3874 3918 1582 3928 3992 3991
          4132 4260 2185 4360 4359 4493
          4501 4500 4620 2902 4698 4830
          4988 5669 2754 5671 5936 5935
          6092 6091 6191 6292 6291 6413
          6531 7086 7145 7260 7259 7303
          7302 7519 7518 2654 6592 7794
          8073 8072 5101 8398 9301 9425
          9424 10040 4975 4579 10189 10433
          10432 10476 10667 10666 10704 10786
          10908 10942 10966 11044 11043 11075
          11197 11196 11219 11380 11379 11572
          11615 10766 11716 11744 11924 11923
          11939 11940 12134 12136 12139 12155
          12154 12163 12162 12240 12250 12284
          12289 12339 12016 12377 12366 12437
          12436 12449 12452 12455 12464 12483
          12491 12490 12501 12509 12519 12535
          12545 12563 12573 12593 12577 12444
          12615 12617 12621 12623 12626 12636
          12635 12641 12645 12651
        </DataArray>
      </PointData>
      <CellData Scalars="MaterialIDs">
        <DataArray type="Int32" Name="submesh_id" format="ascii" RangeMin="5" RangeMax="5">
          5 5 5 5 5 5
          5 5 5 5 5 5
          5 5 5 5 5 5
          5 5 5 5 5 5
          5 5 5 5 5 5
          5 5 5 5 5 5
          5 5 5 5 5 5
          5 5 5 5 5 5
          5 5 5 5 5 5
          5 5 5 5 5 5
          5 5 5 5 5 5
          5 5 5 5 5 5
          5 5 5 5 5 5
          5 5 5 5 5 5
          5 5 5 5 5 5
          5 5 5 5 5 5
          5 5 5 5 5 5
          5 5 5 5 5 5
          5 5 5 5 5 5
          5 5 5 5 5 5
          5 5 5 5 5 5
          5 5 5 5 5 5
          5 5 5 5 5 5
          5 5 5 5 5 5
          5 5 5 5 5 5
          5 5 5 5 5 5
          5 5 5 5 5 5
          5 5 5 5 5 5
          5 5 5 5 5 5
          5 5 5
        </DataArray>
        <DataArray type="Float64" Name="recharge" format="ascii" RangeMin="154.476080391435" RangeMax="221">
          173 162.252516246696 173 177 170.997403934056 189.797167314765
          189 165 165 189 176.912458615521 157.126808498181
          185 169 177.095093100968 162.771246538489 178.334079408875 177.411489384749
          176.157439658342 165.406929420738 174 173 171.027380908052 159
          193.351751306508 167.952403849859 175.356330316651 165.782635386579 164 177
          173 188 171.561313198666 215.995141431705 175.181448871745 155
          177 174 161 173.670831072646 164 173.518719642426
          179.978236206861 174.580770509803 180 155 183.904093014914 169
          175.934340247047 167.675140843272 167.082187570364 168.364932077518 189.821467686263 166.650878882594
          205.998692184432 189.98290835365 194 174.830376187028 193 193.066333146436
          161.974942354126 168 201.705197009214 169.604980241179 175.717405026884 166
          160 193.900231974098 176.001712975001 160.046930317701 196 163.600705212647
          174 176.751735364654 159.255276690879 157.055527136243 200.489278392922 190
          200 160.002833579202 175 199 174 196.513673504872
          214.784684127692 162 173.492431941788 203.717347147363 160 160.009808198566
          177.005996395583 205.973396396686 221 171.370197105595 156.112866576516 175.093452647923
          174 169.458521737425 164.06359291446 162 212 174
          174 185.994114098993 174 165.925876070985 169 212
          196 178.911960160004 186.702639218461 166.339552869027 177 176
          174 179 161.087130774159 163.322920889008 188 159.361379327401
          173 177.43980618033 188 176 205 161
          161 176 177 177.288455929114 160.876708915803 176.05703261456
          159 176 158.34953080091 176.999102674821 177.287590931366 180.009146056801
          171 174.311806214724 176 159.991397423109 179 161
          180.037466042801 165 193.485886366848 186 156 171.404793755541
          167.665130909891 167.980125295951 185.668363395412 181.611563847743 185.024370412306 169.091672952244
          177.115978348579 163 167.982984119381 212.739434880082 161.490471928361 160
          176.065803480389 154.476080391435 155.948297590932 185 163.388350729576 157.022508598386
          159.646686385371 167.109491065338 161.554142037353 173 165 180.251885903233
          167 172.218434452306 161.542278328215
        </DataArray>
        <DataArray type="UInt64" Name="bulk_element_ids" format="ascii" RangeMin="8" RangeMax="24963">
          8 9 32 45 93 132
          176 183 225 233 287 410
          628 1000 1217 1257 1412 1620
          1727 1742 1748 1758 2021 2033
          2102 2136 2171 2297 2379 2450
          2517 2719 2728 2764 2773 2828
          2948 3065 3110 3158 3295 3301
          3417 3506 3630 3792 4551 4554
          4703 4763 4774 4904 5078 5210
          5334 5493 5666 5949 6438 6536
          6722 6781 7121 7132 7189 7542
          7951 8240 8499 9800 10081 10260
          11594 11918 12442 12537 13077 13161
          13409 13815 13923 14015 14295 14300
          14398 14901 14980 15420 15601 16246
          16260 16385 16585 16799 16813 16928
          17299 17768 17816 17817 17829 17833
          17913 18084 18151 18168 18503 18543
          18678 18923 18951 18958 19068 19108
          19230 19588 19692 19806 19917 19953
          19972 20250 20495 20649 20660 21076
          21160 21222 21244 21276 21300 21317
          21425 21666 21738 21803 21841 21852
          21998 22090 22202 22248 22347 22392
          22449 22546 22569 22764 22832 23084
          23119 23224 23548 23575 23637 23698
          23728 23811 23813 23890 23936 24077
          24109 24151 24325 24331 24346 24402
          24592 24791 24953 24954 24955 24956
          24961 24962 24963
        </DataArray>
        <DataArray type="Int32" Name="MaterialIDs" format="ascii" RangeMin="1" RangeMax="7">
          3 1 1 2 1 1
          1 2 1 1 1 1
          1 1 1 1 1 2
          1 1 3 1 1 1
          1 1 2 1 5 1
          1 1 2 1 2 1
          2 2 1 1 5 5
          2 1 1 1 2 1
          1 1 1 1 1 5
          1 1 1 2 1 1
          2 1 1 1 3 1
          2 1 3 2 2 1
          5 1 1 1 1 1
          1 1 2 1 5 1
          1 2 5 1 1 1
          2 1 1 2 1 2
          5 1 2 2 1 2
          2 1 5 2 1 1
          2 1 1 1 4 1
          5 1 1 2 1 1
          1 1 1 1 1 1
          1 1 1 1 1 1
          1 1 1 1 1 1
          1 1 1 1 1 1
          1 2 1 1 1 1
          1 1 1 1 1 1
          1 1 1 1 1 1
          1 1 1 1 1 1
          1 1 1 1 1 1
          1 1 7
        </DataArray>
      </CellData>
      <Points>
        <DataArray type="Float64" Name="Points" NumberOfComponents="3" format="ascii" RangeMin="7249779.147169071" RangeMax="7285673.789039985">
          4447007 5748664.5 99 4447104.5 5748340.5 99
          4446975 5748897 99 4447309 5747299.5 101
          4447406.5 5746907.5 102 4445123 5757727.5 86
          4445504 5757519.5 86 4442988.5 5741015 115
          4442710.5 5740618 116 4446784 5765594 79
          4446506 5765194.5 79 4447579.5 5765295.5 79
          4447182 5765444.5 79 4443774.5 5751423.5 94
          4443981 5751043 100 4446631.5 5745535 106
          4446296 5745173 106 4456428 5763042 74
          4455959 5763144 74 4466796 5753906.5 67
          4466872 5754349.5 67 4439324.5 5738522 125
          4438932 5738265 126 4442073 5739877.5 118
          4441712.5 5739534.5 120 4440932 5739136.5 122
          4440582 5738870.5 121 4441322.5 5739335.5 121
          4440232.5 5738604.5 122 4444404.5 5758650 85
          4444573 5758293 86 4447235.5 5746206.5 104
          4446966.5 5745897.5 104 4444255 5754503.5 92
          4444058.5 5754095.5 92 4447256 5747658 102
          4442433 5740220.5 116 4464355 5756954.5 68
          4463892.5 5757046.5 69 4443673 5760633 85
          4443707.5 5760179 83 4458777 5761565.5 73
          4458334.5 5761704 80 4443626.5 5753307.5 100
          4443391 5752928 93 4443814 5741503.5 113
          4443401 5741259 114 4446145 5749266 96
          4446544 5749198 98 4447504 5746515 103
          4447202.5 5748016.5 100 4448710 5765142 78
          4448341.5 5765418 78 4444626 5742435.5 112
          4444444 5742014.5 112 4434345.5 5735981.5 150
          4433903.5 5735834.5 155 4443625 5752536 93
          4467242 5753157.5 66 4467019 5753532 67
          4444741.5 5757935.5 86 4443862 5753687 91
          4446943 5749130 99 4454126 5763575 75
          4453661.5 5763719.5 75 4445967.5 5749579.5 94
          4445451.5 5755630.5 89 4445135.5 5755369.5 89
          4444124 5759001.5 85 4453187 5763816 76
          4452712.5 5763912 75 4439778.5 5738563.5 124
          4467316 5752693 65 4443844 5759352.5 85
          4445214.5 5743690 108 4445011 5743273.5 111
          4445482.5 5744604.5 107 4445348.5 5744147 108
          4437881.5 5737443 131 4437630 5737053.5 131
          4445789.5 5749893 99 4445117.5 5762240 81
          4444764.5 5761927 81 4446228.5 5764795 80
          4437379 5736663.5 134 4443638.5 5761087 82
          4444025.5 5761350.5 82 4444187 5750662.5 94
          4444581.5 5750450 95 4457891.5 5761842.5 73
          4457513.5 5762156.5 74 4445594 5763509.5 80
          4445454 5763063 81 4473088 5746542.5 64
          4472417.5 5746650.5 65 4444129 5741759 112
          4444976 5750237.5 96 4445383 5750065 97
          4444412 5761614.5 82 4471747.5 5746758 66
          4443775.5 5759766 84 4461292.5 5758266.5 73
          4460962.5 5758636.5 70 4444929 5755116.5 91
          4444723 5754863.5 92 4438539.5 5738007.5 128
          4438210.5 5737725.5 129 4466877.5 5755697 67
          4466409 5755808 68 4466913 5755244.5 68
          4435569.5 5736113 144 4435106 5736074 146
          4445981 5764375.5 80 4436033 5736152.5 142
          4465941 5755919 67 4444807.5 5742857 109
          4445734 5763956.5 80 4445912 5756781 87
          4445840 5756336 88 4436511 5736089 138
          4443859 5752144 93 4443817 5751783.5 94
          4445767.5 5755891 88 4462948 5757259.5 68
          4462465.5 5757380.5 69 4465466.5 5756074.5 67
          4445285.5 5762651.5 81 4436989 5736025.5 136
          4466948 5754792 67 4445708 5757150.5 86
          4468128.5 5749331 66 4468409 5749667.5 64
          4434726 5736028 157 4444489 5754683.5 97
          4454591 5763431 74 4449078.5 5764866.5 78
          4445889.5 5744888.5 106 4468384 5748286 64
          4468116 5748640.5 65 4469430.5 5747321 65
          4469016 5747544 64 4471257.5 5746799.5 65
          4468287 5750084.5 64 4447960.5 5765356.5 78
          4464673.5 5756592 68 4452222 5763951.5 76
          4451731 5763990.5 76 4455490 5763245.5 74
          4464992 5756229.5 68 4462044 5757638.5 70
          4461623 5757896.5 70 4456782 5762756.5 74
          4468700 5747915 66 4469845 5747098 64
          4463430 5757138.5 69 4455040.5 5763338 74
          4468164.5 5750501.5 64 4467909 5750886.5 65
          4457136 5762471 74 4451320 5764170.5 76
          4467848 5748994.5 64 4470306 5746969.5 63
          4470767.5 5746840.5 64 4437184 5736344.5 137
          4449545.5 5764781 78 4459101 5761224.5 71
          4459920.5 5760068 72 4459672.5 5760475.5 72
          4450013 5764695 78 4450909 5764350 77
          4450461 5764522.5 77 4459424.5 5760883 71
          4460632.5 5758997 70 4467521.5 5751749.5 65
          4467390.5 5752228.5 65 4467653 5751271 65
          4460303 5759358 71 4460111.5 5759713 70
          <InformationKey name="L2_NORM_RANGE" location="vtkDataArray" length="2">
            <Value index="0">
              7249779.1472
            </Value>
            <Value index="1">
              7285673.789
            </Value>
          </InformationKey>
          <InformationKey name="L2_NORM_FINITE_RANGE" location="vtkDataArray" length="2">
            <Value index="0">
              7249779.1472
            </Value>
            <Value index="1">
              7285673.789
            </Value>
          </InformationKey>
        </DataArray>
      </Points>
      <Cells>
        <DataArray type="Int64" Name="connectivity" format="ascii" RangeMin="0" RangeMax="177">
          0 1 2 0 3 4
          5 6 7 8 9 10
          11 12 13 14 15 16
          12 9 17 18 19 20
          21 22 23 24 25 26
          27 25 26 28 29 30
          31 32 32 15 33 34
          35 3 8 36 37 38
          39 40 41 42 43 44
          45 46 47 48 49 31
          1 50 51 52 53 54
          55 56 44 57 58 59
          60 5 34 61 62 2
          63 64 65 47 66 67
          68 29 69 70 28 71
          72 58 73 68 74 75
          4 49 24 27 46 7
          76 77 78 79 80 65
          81 82 10 83 79 84
          61 43 85 39 86 85
          87 88 89 90 91 92
          36 23 93 94 95 45
          96 97 98 86 94 99
          88 96 40 100 101 102
          103 104 105 106 107 108
          109 107 110 111 83 112
          113 110 108 114 115 53
          116 91 117 118 112 116
          119 113 120 121 122 66
          82 98 123 124 114 125
          30 60 92 126 127 119
          75 115 20 128 6 129
          129 117 130 131 121 13
          57 120 111 132 104 133
          133 33 106 78 67 103
          54 95 77 74 132 55
          100 73 134 63 135 51
          136 76 137 138 139 140
          118 122 99 141 131 142
          97 80 52 143 144 37
          50 35 145 146 143 11
          18 147 126 81 125 148
          149 150 70 145 151 17
          152 137 148 144 153 139
          38 154 147 155 156 157
          158 151 155 134 146 159
          160 130 138 160 161 153
          154 123 141 162 142 156
          71 21 14 87 84 163
          164 135 128 109 90 158
          165 41 166 167 168 164
          159 169 169 170 171 165
          140 152 102 172 42 89
          163 127 124 149 173 174
          162 161 157 175 59 19
          170 168 172 176 175 173
          174 72 176 177 150 101
          64 69 16 136 22 105
          177 166 167 171 48 62
        </DataArray>
        <DataArray type="Int64" Name="offsets" format="ascii" RangeMin="2" RangeMax="354">
          2 4 6 8 10 12
          14 16 18 20 22 24
          26 28 30 32 34 36
          38 40 42 44 46 48
          50 52 54 56 58 60
          62 64 66 68 70 72
          74 76 78 80 82 84
          86 88 90 92 94 96
          98 100 102 104 106 108
          110 112 114 116 118 120
          122 124 126 128 130 132
          134 136 138 140 142 144
          146 148 150 152 154 156
          158 160 162 164 166 168
          170 172 174 176 178 180
          182 184 186 188 190 192
          194 196 198 200 202 204
          206 208 210 212 214 216
          218 220 222 224 226 228
          230 232 234 236 238 240
          242 244 246 248 250 252
          254 256 258 260 262 264
          266 268 270 272 274 276
          278 280 282 284 286 288
          290 292 294 296 298 300
          302 304 306 308 310 312
          314 316 318 320 322 324
          326 328 330 332 334 336
          338 340 342 344 346 348
          350 352 354
        </DataArray>
        <DataArray type="UInt8" Name="types" format="ascii" RangeMin="3" RangeMax="3">
          3 3 3 3 3 3
          3 3 3 3 3 3
          3 3 3 3 3 3
          3 3 3 3 3 3
          3 3 3 3 3 3
          3 3 3 3 3 3
          3 3 3 3 3 3
          3 3 3 3 3 3
          3 3 3 3 3 3
          3 3 3 3 3 3
          3 3 3 3 3 3
          3 3 3 3 3 3
          3 3 3 3 3 3
          3 3 3 3 3 3
          3 3 3 3 3 3
          3 3 3 3 3 3
          3 3 3 3 3 3
          3 3 3 3 3 3
          3 3 3 3 3 3
          3 3 3 3 3 3
          3 3 3 3 3 3
          3 3 3 3 3 3
          3 3 3 3 3 3
          3 3 3 3 3 3
          3 3 3 3 3 3
          3 3 3 3 3 3
          3 3 3 3 3 3
          3 3 3 3 3 3
          3 3 3 3 3 3
          3 3 3
        </DataArray>
      </Cells>
    </Piece>
  </UnstructuredGrid>
</VTKFile>
