<VTKFile type="UnstructuredGrid" version="1.0" byte_order="LittleEndian" header_type="UInt64">
  <UnstructuredGrid>
    <Piece NumberOfPoints="431" NumberOfCells="780">
      <PointData Scalars="bulk_node_ids">
        <DataArray type="UInt64" Name="bulk_node_ids" format="ascii" RangeMin="80" RangeMax="12570">
          82 81 80 83 121 120
          119 122 162 161 160 163
          332 331 330 333 518 517
          516 519 524 568 567 566
          569 591 590 589 592 601
          367 676 715 714 713 716
          760 759 758 761 1096 1095
          1094 1097 1123 1122 1121 1124
          1127 1126 1125 1128 1147 1146
          1145 1148 1166 1314 733 1313
          804 1395 1453 1452 1454 1547
          1578 873 872 1579 806 1696
          1697 1704 1703 1705 1753 1752
          1751 1754 1849 1848 1850 1859
          818 819 1860 1913 1912 1914
          1986 1985 1984 1987 2056 2055
          2054 2057 2062 2172 2171 2170
          2173 2242 2346 2345 1358 2352
          2624 2625 2632 2631 2630 2633
          2731 3080 3102 3101 3137 3136
          3135 2012 3265 3264 3266 3328
          3470 3471 3578 800 798 3742
          2124 3887 3886 3885 3888 4048
          4163 4257 4385 4384 4623 4622
          4637 4638 3022 4982 4981 4980
          4983 5090 5096 5095 5094 5097
          5238 5252 5251 5253 5268 5624
          4096 5678 5912 5998 5999 6081
          6080 6079 6502 6521 1714 6604
          6603 6602 6605 6622 6621 6623
          6707 6758 6821 6873 6992 6991
          6990 6993 1595 7047 7046 7190
          7397 7396 7424 7755 7754 7753
          7756 7983 7984 7998 3544 3545
          8206 8212 8211 8210 8213 8216
          8283 8384 8383 8382 8385 8495
          8494 8496 8578 8577 8576 8579
          8590 8619 8622 8631 8665 8676
          4098 8769 8768 8767 8770 8952
          8957 8956 8958 2434 2432 8993
          8992 8991 8994 8998 8997 8996
          8999 9100 9215 9214 9213 9216
          9217 9218 9221 9277 9292 9291
          9290 9293 9295 9294 9298 9300
          9312 9311 9310 9327 9337 9336
          9335 9338 9358 9365 9387 9389
          9390 9414 9413 9412 9415 9437
          9440 9442 9447 803 9451 9453
          9457 9492 9491 9493 9534 9548
          9553 9708 9707 9706 9709 9714
          9728 9727 9733 9751 9754 9753
          9752 9793 9803 9805 9812 9822
          9831 9832 9833 9848 9868 9873
          9881 9891 9893 9920 9939 9951
          9967 9966 9968 9976 9998 9997
          9999 10007 10006 10022 10032 10039
          10053 10058 10068 4315 10122 10127
          10143 10152 10172 10212 2152 1742
          10262 10454 10474 10499 10504 10505
          10523 10536 10537 10547 10546 10570
          10569 10585 10606 10685 10694 10706
          10733 10825 10839 10864 10894 10914
          10913 10969 11021 11068 11164 11248
          11288 11338 11343 11411 11416 11443
          11524 11523 11525 4745 11675 11674
          11673 11676 11681 11682 11804 11805
          11817 11821 11824 11828 11827 11826
          11829 11830 11855 11882 11918 11962
          11972 12028 735 12029 12038 12095
          2126 12137 1745 12226 12243 12261
          12316 12337 12282 12424 12478 12071
          9167 11464 12570 9165 10314
        </DataArray>
      </PointData>
      <CellData Scalars="MaterialIDs">
        <DataArray type="Int32" Name="submesh_id" format="ascii" RangeMin="3" RangeMax="3">
          3 3 3 3 3 3
          3 3 3 3 3 3
          3 3 3 3 3 3
          3 3 3 3 3 3
          3 3 3 3 3 3
          3 3 3 3 3 3
          3 3 3 3 3 3
          3 3 3 3 3 3
          3 3 3 3 3 3
          3 3 3 3 3 3
          3 3 3 3 3 3
          3 3 3 3 3 3
          3 3 3 3 3 3
          3 3 3 3 3 3
          3 3 3 3 3 3
          3 3 3 3 3 3
          3 3 3 3 3 3
          3 3 3 3 3 3
          3 3 3 3 3 3
          3 3 3 3 3 3
          3 3 3 3 3 3
          3 3 3 3 3 3
          3 3 3 3 3 3
          3 3 3 3 3 3
          3 3 3 3 3 3
          3 3 3 3 3 3
          3 3 3 3 3 3
          3 3 3 3 3 3
          3 3 3 3 3 3
          3 3 3 3 3 3
          3 3 3 3 3 3
          3 3 3 3 3 3
          3 3 3 3 3 3
          3 3 3 3 3 3
          3 3 3 3 3 3
          3 3 3 3 3 3
          3 3 3 3 3 3
          3 3 3 3 3 3
          3 3 3 3 3 3
          3 3 3 3 3 3
          3 3 3 3 3 3
          3 3 3 3 3 3
          3 3 3 3 3 3
          3 3 3 3 3 3
          3 3 3 3 3 3
          3 3 3 3 3 3
          3 3 3 3 3 3
          3 3 3 3 3 3
          3 3 3 3 3 3
          3 3 3 3 3 3
          3 3 3 3 3 3
          3 3 3 3 3 3
          3 3 3 3 3 3
          3 3 3 3 3 3
          3 3 3 3 3 3
          3 3 3 3 3 3
          3 3 3 3 3 3
          3 3 3 3 3 3
          3 3 3 3 3 3
          3 3 3 3 3 3
          3 3 3 3 3 3
          3 3 3 3 3 3
          3 3 3 3 3 3
          3 3 3 3 3 3
          3 3 3 3 3 3
          3 3 3 3 3 3
          3 3 3 3 3 3
          3 3 3 3 3 3
          3 3 3 3 3 3
          3 3 3 3 3 3
          3 3 3 3 3 3
          3 3 3 3 3 3
          3 3 3 3 3 3
          3 3 3 3 3 3
          3 3 3 3 3 3
          3 3 3 3 3 3
          3 3 3 3 3 3
          3 3 3 3 3 3
          3 3 3 3 3 3
          3 3 3 3 3 3
          3 3 3 3 3 3
          3 3 3 3 3 3
          3 3 3 3 3 3
          3 3 3 3 3 3
          3 3 3 3 3 3
          3 3 3 3 3 3
          3 3 3 3 3 3
          3 3 3 3 3 3
          3 3 3 3 3 3
          3 3 3 3 3 3
          3 3 3 3 3 3
          3 3 3 3 3 3
          3 3 3 3 3 3
          3 3 3 3 3 3
          3 3 3 3 3 3
          3 3 3 3 3 3
          3 3 3 3 3 3
          3 3 3 3 3 3
          3 3 3 3 3 3
          3 3 3 3 3 3
          3 3 3 3 3 3
          3 3 3 3 3 3
          3 3 3 3 3 3
          3 3 3 3 3 3
          3 3 3 3 3 3
          3 3 3 3 3 3
          3 3 3 3 3 3
          3 3 3 3 3 3
          3 3 3 3 3 3
          3 3 3 3 3 3
          3 3 3 3 3 3
          3 3 3 3 3 3
          3 3 3 3 3 3
          3 3 3 3 3 3
          3 3 3 3 3 3
          3 3 3 3 3 3
          3 3 3 3 3 3
          3 3 3 3 3 3
          3 3 3 3 3 3
          3 3 3 3 3 3
          3 3 3 3 3 3
          3 3 3 3 3 3
          3 3 3 3 3 3
          3 3 3 3 3 3
          3 3 3 3 3 3
          3 3 3 3 3 3
          3 3 3 3 3 3
          3 3 3 3 3 3
          3 3 3 3 3 3
          3 3 3 3 3 3
        </DataArray>
        <DataArray type="Float64" Name="recharge" format="ascii" RangeMin="168" RangeMax="179">
          177.911281449236 177.901684974147 179 179 170 170
          174.940302812905 178.392788494405 171 171 171 174.260597411828
          175.317430174043 170.071294770036 170 176.541890962279 178 178
          178 177.922820349659 178 176 176 176
          176 179 179 170 170 176
          168 168 174.975184468635 168 168.058044992128 171
          171 171 176.521750228873 168 176 176
          176 176 174.080459804266 175.472385339487 176 176
          171 171 179 179 176 176
          170 170 176 179 179 179
          176 170 178 178 179 176
          176 176 176 176 176 176
          178 178.484946847821 175.093210448727 171.659934251107 172 176
          176 176 171 171 176 176
          170 170 178.781245138831 175.330300962538 176 170
          170 176 179 179 179 179
          179 178.376244494529 177.825642674106 178 176 176
          176 177.991978001578 177.082549243935 170 176 178
          178.835472205964 173.771765308937 174.774840341766 176 176 170
          176 176 170.355855601969 178 178 178
          176 176 171 175.747559876654 178 176
          176.085866056638 176.509371233848 179 176 179 170.99305810898
          178 179 179 171 171 178
          179 179 178.596740972624 177.663785728373 176 171
          171 171 171 176 176 176
          179 170.158770305246 170.958798603573 179 170 170.893477583102
          171 171 171 177.142905823758 179 179
          174.799650423573 171.250000717209 179 179 176 176
          176 176 179 171 171 168
          168 171 171 171 171 178.797402081708
          168 179 168.040880884479 168 168 179
          179 170.680614748095 176.000288280617 179 178 171
          171 171 179 171 168 179
          171 171 171.994124723141 179 171 171
          171 171 179 179 168 179
          171 173.074069465993 170 170 170 170
          170 169.80928535946 171 179 176.395756885949 179
          171 171 179 171 171 171
          171 171 171 171 171 170.937168371396
          171 168 171 169.23104148543 179 179
          176.449651136718 168 168 179 179 170
          171 171 168 174.912550274458 171 170
          171 171 169.501389583334 171 171 171
          171 171 171.185873016575 171 171 171
          171 170.535854893129 168 171 175.773474914785 171
          178 168 169.31555415643 168.962858307314 171 170
          170 171 179 170.136415977218 170 170
          171 168 168 168 171 179
          176.379739800634 170.949010526498 171 170 172.684514903818 171
          179 171 170 170 171.009926240043 171
          170.968531448873 170 170 170 171 171
          171 171 179 171 170 169.995216456964
          169.994152602541 170.968896724726 179 170 168 170
          170.523711192681 168 171 176 170.173579101283 171
          171 170 168 170.047748747594 170.727334300329 170
          170 170 170 171 171 171
          171 171 171 171 171 179
          170.79749126248 168 171 171 179 179
          179 178.224745135243 171 171 171 171
          179 171 171 170.266543553625 171 171
          179 168 178 171 170 174.4475886963
          171 170 171 179 171 171
          171 171 179 171 171 171.006849361464
          171 179 170.32679142139 168.759618818877 170 179
          170 179 171 178.361593187338 171 179
          171 171 170 170 174.479665049519 171
          179 179 168 172.042225290163 176 168.984464445571
          171 171 179 168 170.359189309819 171
          179 179 179 171 176 171
          171 170.99028433565 171 176.673492788804 176 179
          176.194107737335 171 179 168 176 176
          171 171 168.532648233653 168 176 179
          177.692930592997 171 179 179 179 168
          173.657962792886 171 170.504933877942 179 171 171
          171 179 168.745493345066 179 179 179
          170 179 171 170.823225678053 170.860661159708 177.471001657913
          168 170 171 176 179 171
          176 176 179 177.600519255445 177.254286982491 169.861210849165
          170 176.305783744677 179 178 168 179
          179 171 171 171.847685776513 176 171.312588455596
          171 168 171 176 179 171
          168 170.138968127282 171 176 176 171
          171 171 170.652973902111 170.004751474356 170.003402335703 176
          170.059048172715 178 171.247159311547 176 168 176
          176 171 176 176 176 170
          170 171 168 171 168 171.721108234975
          176 170 176 170 170 171
          176 177.390046353196 176.313022593776 176 179 176.501077613184
          170 179 176 176 171 177.584162465792
          176 176 171 171 175.806221550733 178
          176 176 176 179 179 171
          171 176 171 171 171 171
          171 170 176 176 174.740129281569 176.438935318969
          176.770161035441 176 176 170 176 170
          170 170 176.484523707416 177.839179694074 176 176
          179 176 179 170 176 176
          176 176 170 176 170 170
          171 176.428094897122 178.823940604114 176 170 176
          178 176 176 179 171 168
          168 177.180497684447 168 171 171 176
          176 176 179 176 175.612272548893 168
          178 176 170 176 175.711169012514 171
          176 176 176 176 176 170
          176 178.366507132371 178 176 171 171.019700965285
          177.932297803124 179 178 178 176.302189603343 176
          171 176 171 176.440841386801 170 170
          179 176 171.120178187857 179 179 170
          176 176 176 176 179 178
          171 176 176 171 168 178.871094190545
          176 170 171 179 179 174.952382276596
          179 170 170 179 176 179
          170 172.898815977023 179 176 171 176.219766662828
          168 171.015112198087 168 168.064161000849 179 176
          176 176 176 179 168 171
          176 170 171.000220962382 179 176 168
          176 168 171.000165500787 176 171 168
          170 171 176 176 170 176
          171 178 170 177.670691573628 177.554552029089 176
          176 170 176 179 169.720427061183 178
          176 171 170 168 179 178
          176 168 168 176 168 171
          176 176 170 170 168 172
          168 176 176 179 179 179
          168 170 170 168.042979214936 176 169.424664956858
          170 176 168 171 168 179
          170.940672822558 176 170 171 176 179
          170 171 178 168 176 178
          176 170 179 178 179 178
          179 172 171 176 168 168
          168 176 171 171.370658627179 170 178.974270565045
        </DataArray>
        <DataArray type="UInt64" Name="bulk_element_ids" format="ascii" RangeMin="39" RangeMax="24969">
          39 40 58 59 79 80
          166 167 263 264 267 289
          290 302 303 308 348 367
          368 393 394 593 594 609
          610 611 612 623 624 635
          723 724 781 815 816 879
          897 898 899 952 983 984
          989 990 1021 1022 1087 1088
          1095 1096 1130 1131 1176 1177
          1227 1228 1232 1320 1321 1368
          1374 1438 1449 1450 1454 1595
          1626 1655 1656 1659 1660 1737
          1999 2015 2016 2050 2051 2070
          2158 2159 2217 2318 2346 2347
          2372 2449 2601 2671 2713 2737
          2738 2857 2876 2976 3061 3102
          3176 3185 3186 3193 3310 3420
          3421 3439 3440 3486 3597 3627
          3785 3786 3903 3906 3907 4069
          4091 4092 4111 4497 4498 4547
          4562 4602 4868 4967 4969 5063
          5064 5065 5189 5202 5622 5652
          5717 5770 5771 5791 5792 5891
          5976 5977 6061 6092 6138 6198
          6293 6294 6333 6378 6379 6617
          6847 6912 6913 6956 6973 7489
          7494 7495 7796 7822 7823 7850
          7882 8189 8195 8196 8199 8200
          8264 8296 8362 8476 8477 8657
          8658 8768 8769 8791 8851 8856
          8860 8879 8886 8903 8904 8927
          8928 8941 8956 8971 9036 9086
          9087 9145 9196 9234 9345 9436
          9442 9443 9455 9459 9515 9516
          9521 9522 9553 9565 9654 9670
          9686 9706 9927 9928 9932 9933
          9945 10025 10049 10057 10071 10072
          10073 10074 10078 10080 10099 10100
          10116 10129 10130 10131 10159 10171
          10179 10193 10208 10209 10212 10213
          10216 10246 10247 10264 10275 10282
          10286 10287 10295 10308 10329 10331
          10337 10341 10371 10383 10395 10396
          10397 10414 10424 10436 10452 10453
          10473 10479 10490 10504 10520 10539
          10547 10836 10858 10859 10872 10890
          10891 10906 10918 10935 10937 10938
          10947 10948 10989 10998 11019 11025
          11052 11056 11072 11085 11090 11094
          11097 11100 11109 11110 11114 11115
          11119 11126 11131 11153 11157 11192
          11197 11198 11208 11217 11225 11243
          11244 11247 11248 11268 11279 11286
          11302 11310 11328 11344 11349 11355
          11380 11383 11394 11417 11418 11442
          11443 11472 11477 11480 11481 11482
          11483 11498 11499 11500 11511 11513
          11525 11530 11553 11555 11558 11570
          11583 11584 11592 11593 11602 11621
          11632 11634 11642 11643 11647 11650
          11656 11658 11661 11691 11696 11706
          11748 11775 11777 11790 11826 11851
          11853 11854 11869 11871 11884 11893
          11895 11906 11921 11968 11973 11982
          11986 11988 11991 12007 12044 12137
          12139 12151 12175 12189 12199 12222
          12252 12277 12283 12306 12308 12314
          12329 12336 12385 12391 12429 12430
          12493 12494 12495 12504 12535 12567
          12579 12599 12620 12637 12638 12670
          12687 12700 12732 12734 12756 12757
          12778 12801 12812 12813 12848 12867
          12898 12919 12947 13043 13058 13113
          13134 13156 13169 13222 13237 13260
          13324 13472 13482 13537 13583 13590
          13606 13674 13678 13687 13688 13700
          13715 13740 13777 13788 13822 13826
          13827 13828 13929 13947 13985 13997
          14020 14047 14078 14197 14207 14223
          14317 14321 14374 14387 14412 14428
          14434 14461 14478 14518 14604 14616
          14620 14658 14750 14780 14781 14811
          14827 14896 14924 14925 14940 15040
          15048 15114 15253 15282 15354 15368
          15370 15423 15433 15453 15454 15466
          15467 15544 15679 15689 15701 15720
          15750 15762 15773 15775 15951 16008
          16047 16061 16062 16063 16074 16234
          16254 16294 16330 16344 16375 16387
          16395 16406 16436 16493 16528 16614
          16639 16640 16641 16667 16668 16692
          16855 16878 16891 16898 16914 16937
          16975 17053 17102 17113 17150 17237
          17238 17290 17291 17300 17311 17331
          17332 17333 17360 17370 17387 17394
          17397 17484 17490 17516 17593 17616
          17617 17655 17677 17686 17733 17742
          17820 17944 17945 17987 17993 18023
          18039 18068 18127 18203 18273 18278
          18279 18294 18342 18347 18351 18368
          18444 18466 18509 18523 18548 18561
          18601 18626 18669 18687 18689 18729
          18738 18739 18828 18843 18857 18860
          18914 18933 18955 19018 19036 19080
          19213 19235 19300 19321 19362 19415
          19456 19480 19505 19542 19609 19635
          19693 19768 19779 19892 19910 19921
          19946 19954 19975 19976 20074 20083
          20116 20144 20206 20219 20241 20247
          20298 20409 20427 20446 20453 20498
          20514 20537 20553 20567 20663 20704
          20717 20759 20777 20840 20862 20891
          20901 20989 21031 21032 21046 21072
          21127 21137 21168 21293 21299 21323
          21381 21405 21434 21522 21540 21576
          21612 21626 21641 21656 21676 21677
          21692 21713 21764 21791 21934 21958
          21967 22029 22043 22051 22070 22120
          22134 22145 22178 22182 22195 22228
          22437 22451 22516 22530 22534 22659
          22669 22674 22675 22706 22708 22720
          22783 22816 22835 22888 22895 22899
          22931 22950 22951 23058 23094 23101
          23239 23272 23280 23298 23342 23399
          23430 23457 23466 23485 23515 23535
          23536 23573 23581 23582 23585 23620
          23669 23785 23927 23959 24079 24095
          24134 24227 24311 24329 24356 24374
          24384 24433 24504 24518 24565 24576
          24579 24649 24668 24746 24789 24969
        </DataArray>
        <DataArray type="Int32" Name="MaterialIDs" format="ascii" RangeMin="0" RangeMax="2">
          0 0 0 0 1 1
          0 0 1 1 1 0
          0 1 1 0 0 0
          0 2 2 0 0 0
          0 0 0 1 1 0
          0 0 0 0 0 1
          0 0 0 0 0 0
          0 0 0 0 0 0
          0 0 0 0 0 0
          1 1 0 0 0 0
          0 1 0 0 0 0
          0 0 0 0 0 0
          0 0 0 1 1 0
          0 0 0 0 0 0
          1 1 0 0 0 1
          1 0 0 0 0 0
          0 0 0 0 0 0
          0 0 0 1 0 2
          0 0 0 0 0 1
          0 0 1 2 2 0
          0 0 1 0 0 0
          0 0 0 0 0 0
          2 0 0 0 0 0
          0 0 0 0 0 0
          0 0 1 0 0 0
          0 0 0 0 1 0
          0 0 0 0 0 0
          0 1 0 0 0 0
          0 0 0 0 0 0
          0 0 0 0 0 0
          0 0 0 0 0 0
          0 0 0 0 2 0
          1 0 0 0 0 0
          1 1 0 0 1 0
          1 1 0 0 0 0
          0 0 1 1 1 1
          1 0 1 0 0 0
          0 1 0 0 1 1
          1 0 0 0 1 1
          0 0 0 0 0 0
          0 1 1 0 0 1
          1 1 0 0 0 1
          0 1 0 0 0 0
          0 0 0 0 1 1
          0 0 0 0 0 0
          0 0 1 1 0 1
          1 0 0 1 1 1
          0 0 0 0 0 0
          0 1 0 1 0 0
          0 0 1 1 0 0
          1 1 1 1 1 0
          1 0 0 0 1 1
          1 1 0 1 0 1
          0 1 0 0 1 1
          0 1 0 1 1 1
          1 1 1 0 0 1
          1 0 0 0 0 0
          0 0 0 1 0 0
          0 0 1 1 1 0
          0 1 0 1 0 0
          0 1 0 1 1 0
          0 1 0 0 0 0
          0 0 0 0 0 0
          0 0 1 1 1 0
          1 0 0 0 0 0
          0 1 1 1 0 0
          0 0 1 0 0 0
          0 1 0 0 1 0
          0 0 0 0 0 1
          0 1 0 0 0 0
          0 0 0 1 0 0
          0 0 1 1 0 0
          0 0 0 0 0 1
          0 0 1 0 0 0
          0 0 1 0 0 0
          1 0 1 1 1 0
          1 1 0 0 0 1
          0 0 0 0 0 1
          1 0 0 0 1 0
          0 0 1 0 0 0
          0 1 0 0 0 0
          1 1 0 0 0 1
          0 1 1 1 1 0
          1 0 0 0 1 0
          0 0 0 0 0 1
          1 1 1 0 1 1
          0 1 0 1 1 0
          0 0 0 0 0 0
          1 0 0 0 0 0
          0 0 0 0 0 0
          0 0 0 0 0 1
          0 0 1 0 1 1
          0 1 0 0 0 0
          0 0 0 1 0 1
          1 1 0 0 0 0
          0 0 0 1 0 0
          0 0 1 0 1 1
          0 0 0 0 1 0
          0 0 0 0 1 1
          1 0 0 0 1 0
          0 0 0 0 0 0
          0 0 1 0 0 1
          0 0 0 0 0 1
          0 0 2 0 0 1
          2 0 2 0 0 0
          0 0 1 0 1 1
          0 0 1 0 0 1
          0 0 0 0 0 2
          0 0 0 0 1 0
          0 1 1 0 0 0
          0 1 1 0 0 0
          1 0 0 0 1 0
          0 1 1 1 0 0
          0 0 0 0 0 0
          0 1 1 0 0 1
          0 1 1 0 0 0
          1 1 0 0 1 0
          0 2 1 0 0 0
          0 1 0 0 1 2
          0 0 1 0 0 2
          0 1 1 0 1 1
          0 0 1 1 1 1
          1 0 0 0 0 0
          1 1 1 1 0 1
          1 0 0 1 1 0
          0 0 1 0 0 0
          1 0 2 1 0 2
          0 1 0 2 0 2
          0 1 1 0 1 1
          1 0 0 1 1 0
        </DataArray>
      </CellData>
      <Points>
        <DataArray type="Float64" Name="Points" NumberOfComponents="3" format="ascii" RangeMin="7266997.556959029" RangeMax="7269953.541740157">
          4454316 5741932 125 4454376 5741885.5 126
          4454377 5741985.5 125 4454447 5741937.5 125
          4455481 5742311.5 131 4455589.5 5742232 131
          4455580.5 5742377.5 130 4455674.5 5742321 131
          4455693 5744067.5 108 4455795 5744012.5 109
          4455777 5744180 107 4455872.5 5744103 108
          4456108.5 5742914 120 4455993 5742881.5 123
          4456110 5742792 125 4455989.5 5742749 127
          4456512.5 5743402 112 4456632 5743425 115
          4456542 5743534 114 4456640.5 5743526 115
          4456648.5 5743627 118 4453924.5 5742108.5 124
          4454022 5742169.5 124 4453934 5742220.5 124
          4454033 5742282 124 4456096 5744009.5 110
          4455984.5 5744056.5 109 4456024.5 5743917 111
          4455898.5 5743966.5 110 4454294.5 5742035.5 125
          4454203 5741983.5 125 4454436 5741839 125
          4454924.5 5741848.5 135 4454871.5 5741761.5 134
          4454995 5741767 136 4454939.5 5741692 137
          4454527.5 5741982 126 4454512.5 5741888 126
          4454623 5741943 126 4454612 5741856.5 126
          4454076 5742597.5 120 4454155 5742485.5 121
          4454195 5742633 119 4454286 5742549.5 121
          4454467.5 5742605 121 4454565.5 5742686 120
          4454420.5 5742729.5 118 4454520.5 5742803.5 118
          4455441.5 5742110.5 132 4455380.5 5742239.5 131
          4455323 5742112.5 133 4455258.5 5742225.5 131
          4454675.5 5744295 107 4454583 5744216 107
          4454744 5744194 107 4454653 5744116.5 107
          4454667.5 5742770 120 4454817.5 5743227 116
          4454709.5 5743179.5 116 4454843.5 5743107 117
          4454758 5743066 117 4454007 5742071.5 124
          4454816.5 5742978 118 4454924 5743048.5 117
          4454928 5742928 121 4456528.5 5743646 114
          4456049.5 5743198.5 116 4456140 5743152.5 115
          4456173 5743269.5 113 4456048.5 5743309.5 114
          4454089.5 5742034.5 124 4454120 5742119 124
          4454198.5 5742078 124 4454308 5742681.5 119
          4454373 5742619.5 120 4454382 5742531 122
          4455125.5 5741964.5 134 4455029.5 5741973.5 133
          4455088 5741903 135 4455008.5 5741909.5 134
          4454174 5742370 123 4454060 5742388.5 122
          4454042.5 5742495 121 4456248 5743438.5 110
          4456283 5743324.5 111 4456393 5743379.5 110
          4456349 5743503 108 4455143 5742213 131
          4455234.5 5742138 132 4455154.5 5742118.5 132
          4454577.5 5742565.5 122 4454683 5742518.5 123
          4454685 5742653.5 122 4454773.5 5742574 123
          4454768.5 5744374 107 4454846 5744272.5 107
          4454886 5744415.5 107 4454965.5 5744329.5 106
          4454620 5742877 117 4455842 5742369.5 132
          4455914.5 5742457 132 4455788 5742488 131
          4455888.5 5742567 131 4455484 5742207.5 132
          4454792.5 5741799.5 130 4454772 5741726.5 130
          4454838 5741673 134 4455197.5 5742314.5 130
          4454763 5742760.5 121 4454780.5 5742666.5 122
          4454862 5742159.5 127 4454915 5742230 130
          4454799 5742247.5 126 4454884.5 5742316.5 127
          4454115 5742216 123 4454840 5741851.5 131
          4455990 5742625.5 131 4456107.5 5742669.5 130
          4456322.5 5743855 112 4456328.5 5743982 111
          4456224.5 5743900 112 4456212.5 5743995.5 111
          4454452 5742036 125 4454537.5 5742095.5 125
          4454600.5 5742028.5 126 4456156 5743377 113
          4454449 5742139.5 124 4454371.5 5742083.5 125
          4454636.5 5744003.5 106 4454548 5744097.5 107
          4454513 5743978.5 107 4455098.5 5742050.5 132
          4456104.5 5742546.5 134 4455126.5 5744455.5 107
          4455178.5 5744345.5 107 4455250 5744454.5 107
          4455291 5744366.5 107 4455878 5742689.5 129
          4455692.5 5742230.5 131 4455871.5 5742811 126
          4455058 5742143 131 4454999 5742065.5 132
          4454490 5742496 123 4454593.5 5742451.5 124
          4454955.5 5741930 134 4454939 5741998.5 133
          4455003.5 5744457 107 4455148.5 5742829.5 123
          4455137.5 5742947 121 4455035 5742882.5 122
          4455029 5742999 120 4455050.5 5741842 135
          4454728 5742096.5 127 4454691.5 5742192 126
          4454638 5742101.5 126 4454601.5 5742171 125
          4455068.5 5744374 106 4454406.5 5742432 123
          4454508 5742391.5 123 4454432 5742332 124
          4455914 5743841 111 4454728 5741797.5 128
          4454697.5 5741726 128 4454779.5 5742159 127
          4456448 5743478.5 110 4456046.5 5742974 120
          4454887.5 5741927 133 4454958 5742701 125
          4455050.5 5742767 124 4454948 5742814.5 123
          4455750 5742386 131 4455128 5743065 118
          4454547.5 5741818.5 126 4455162.5 5742486 128
          4455260 5742416.5 129 4455265.5 5742542 128
          4455370 5742485 129 4455238 5743012.5 120
          4455230.5 5743131 118 4455123 5743184 117
          4454992 5741853 135 4455224.5 5742038.5 133
          4455979 5742527 132 4454785 5742356.5 125
          4455108 5743423 114 4455115.5 5743303 115
          4455216.5 5743369.5 115 4455224 5743250 116
          4456583 5743732.5 118 4454973.5 5742373.5 129
          4454876.5 5742414 126 4454113.5 5742307 123
          4455014 5743237 117 4455022 5743118 118
          4455365 5742605.5 127 4455635 5743278.5 116
          4455629 5743399 115 4455530 5743330.5 116
          4455524 5743450.5 114 4455059 5742648.5 127
          4455155.5 5742713.5 125 4455073.5 5742320 131
          4453950.5 5742447 122 4453944 5742333 125
          4456136 5743932.5 111 4455463 5742670 127
          4455468.5 5742550 128 4455568.5 5742615.5 127
          4455574.5 5742496.5 129 4454695.5 5742301 125
          4454970 5742473.5 128 4455748.5 5743105.5 120
          4455641.5 5743158 119 4455648.5 5743038.5 120
          4455542 5743090.5 119 4454918.5 5743171.5 117
          4454906.5 5743290.5 115 4455006.5 5743356.5 115
          4455202 5743610 112 4455209.5 5743489.5 113
          4455310 5743556 113 4455317 5743435.5 114
          4455101 5743543.5 113 4455246 5742894.5 122
          4454899 5743410.5 114 4455674.5 5742442 130
          4455475 5742431.5 129 4454999.5 5743477 114
          4454659.5 5741798.5 127 4455411 5743623.5 112
          4455517 5743572 112 4455509 5743691.5 111
          4455616 5743640 112 4455378.5 5742369 130
          4456445 5743573.5 112 4456341.5 5743622.5 109
          4456429.5 5743688 111 4455871 5742258 133
          4455958.5 5742345.5 133 4455813.5 5743771.5 111
          4455821 5743652.5 112 4455921 5743718 111
          4455928 5743599 112 4456234.5 5743676.5 112
          4456227.5 5743795.5 112 4456128 5743730 111
          4456123 5743840 111 4455338 5743078 118
          4455276 5744163 106 4455174.5 5744096.5 106
          4455282 5744042 107 4455181 5743974 108
          4454853 5744139.5 106 4454956.5 5744205.5 106
          4455072 5744029.5 107 4456021.5 5743783.5 111
          4455755.5 5742985.5 122 4455655 5742919 123
          4455762 5742866 124 4455662 5742800 125
          4456035 5743545 113 4456028 5743664.5 112
          4455674.5 5742562 129 4455331 5743197 117
          4455296.5 5743798 110 4455303.5 5743677 111
          4455403 5743744.5 111 4455094 5743664.5 112
          4455942 5743359 114 4455935 5743479 114
          4455834.5 5743413 114 4455827.5 5743533 113
          4455396.5 5743865 110 4455289 5743919.5 109
          4454993 5743598 113 4455358 5742723.5 125
          4455259.5 5742660 126 4454682.5 5743637 113
          4454694 5743521.5 113 4454783 5743585.5 113
          4454793 5743465 114 4454962.5 5744084.5 106
          4456134.5 5743611 112 4454891.5 5743531.5 113
          4454734.5 5742866 119 4454689 5742971.5 118
          4455324.5 5743316.5 115 4454860 5744017 107
          4455728 5743467 114 4455741 5743226.5 117
          4455735 5743347 116 4455841.5 5743292.5 115
          4454808 5743345 115 4455721.5 5743586.5 113
          4455863 5742932 123 4455079 5743907 109
          4454970 5743962 108 4454977.5 5743840 110
          4454868.5 5743895 109 4455848.5 5743172.5 118
          4455276 5744275 107 4455169 5744217.5 106
          4455345 5742959.5 121 4455087 5743786 110
          4455484 5744055.5 108 4455592 5744001 108
          4455583 5744118 107 4455253 5742777 124
          4455068 5742428.5 129 4455188 5743852.5 109