<?xml version="1.0"?>
<VTKFile type="UnstructuredGrid" version="1.0" byte_order="LittleEndian" header_type="UInt64" compressor="vtkZLibDataCompressor">
  <UnstructuredGrid>
    <FieldData>
      <DataArray type="Int8" Name="OGS_VERSION" NumberOfTuples="5" format="ascii" RangeMin="46" RangeMax="54">
        54 46 52 46 49
      </DataArray>
    </FieldData>
    <Piece NumberOfPoints="12654" NumberOfCells="25000">
      <PointData>
        <DataArray type="Float64" Name="HydraulicFlow" format="ascii" RangeMin="-0.9783161948082233" RangeMax="1.4549434159603534">
          -5.551115123125783e-17 -3.0531133177191805e-16 1.1102230246251565e-16 1.6653345369377348e-16 0 -5.551115123125783e-17
          3.885780586188048e-16 1.1102230246251565e-16 -1.1102230246251565e-16 3.3306690738754696e-16 1.1102230246251565e-16 2.7755575615628914e-17
          2.7755575615628914e-17 -1.6653345369377348e-16 -3.885780586188048e-16 -1.6653345369377348e-16 -0.009378996827200281 -0.011720570748137538
          0.006854595419958753 -0.010208420498943608 0.008692027205288888 -1.1102230246251565e-16 -1.6653345369377348e-16 0
          -5.551115123125783e-17 -1.1102230246251565e-16 1.3877787807814457e-16 0 -8.326672684688674e-17 -0.47185559088318113
          0.8922548974742227 -0.5205225194882179 1.0338633042374967 -1.942890293094024e-16 -5.551115123125783e-17 -2.220446049250313e-16
          3.885780586188048e-16 -2.220446049250313e-16 0 -5.551115123125783e-17 -5.551115123125783e-17 -1.942890293094024e-16
          5.551115123125783e-17 -2.7755575615628914e-16 0 1.1102230246251565e-16 -3.3306690738754696e-16 -1.6653345369377348e-16
          -1.6653345369377348e-16 0.1372688744797922 -0.012246026550214506 -0.06035137247972816 -0.11190628545672004 0
          0 5.551115123125783e-16 -3.3306690738754696e-16 3.885780586188048e-16 1.6653345369377348e-16 -2.7755575615628914e-16
          -1.6653345369377348e-16 -1.1102230246251565e-16 -2.7755575615628914e-16 5.551115123125783e-17 -2.220446049250313e-16 0.012388710055187102
          0.004096043580408673 -0.007197133972353331 0.7199804397709234 -0.42045850164639054 -0.1578180324111073 0.7671462000662912
          3.885780586188048e-16 2.7755575615628914e-16 -5.551115123125783e-17 -2.498001805406602e-16 1.1102230246251565e-16 1.1102230246251565e-16
          -1.6653345369377348e-16 -5.551115123125783e-17 2.7755575615628914e-16 -0.09064138358563212 -0.09589495944205284 -2.7755575615628914e-16
          8.326672684688674e-17 2.220446049250313e-16 -1.1102230246251565e-16 -5.551115123125783e-17 -0.06857698905657972 0.16968010285145496
          0.2062398899459063 -0.08749163802311566 -0.09559436561952903 -0.08954391110538215 0.10794439598422322 0.7642738732947505
          -0.20137337815897116 0.9664133694265193 -0.34383331200471623 -5.551115123125783e-17 1.1102230246251565e-16 1.1102230246251565e-16
          0 1.6653345369377348e-16 -5.551115123125783e-17 3.0531133177191805e-16 2.220446049250313e-16 -5.551115123125783e-17
          -8.326672684688674e-17 1.6653345369377348e-16 -1.6653345369377348e-16 1.942890293094024e-16 1.1102230246251565e-16 0
          -2.220446049250313e-16 -2.7755575615628914e-16 3.3306690738754696e-16 -3.885780586188048e-16 -2.7755575615628914e-16 -3.0531133177191805e-16
          1.1102230246251565e-16 -5.551115123125783e-17 -2.7755575615628914e-17 2.7755575615628914e-17 2.220446049250313e-16 -1.1102230246251565e-16
          2.7755575615628914e-16 0.12482874169390806 -0.050821780477562445 0.13955989705149696 -0.02367049863243842 3.3306690738754696e-16
          -8.326672684688674e-17 -5.551115123125783e-17 0 -5.551115123125783e-17 1.1102230246251565e-16 -5.551115123125783e-17
          5.551115123125783e-17 -1.1102230246251565e-16 1.1102230246251565e-16 1.1102230246251565e-16 0 2.220446049250313e-16
          1.1102230246251565e-16 -5.551115123125783e-17 1.1102230246251565e-16 -1.6653345369377348e-16 5.551115123125783e-17 2.220446049250313e-16
          -4.440892098500626e-16 -2.7755575615628914e-16 3.0531133177191805e-16 1.6653345369377348e-16 1.942890293094024e-16 -4.440892098500626e-16
          -1.3877787807814457e-16 1.1102230246251565e-16 0 5.551115123125783e-17 -0.0896931936667262 -2.498001805406602e-16
          2.7755575615628914e-17 -0.05813085234511156 4.440892098500626e-16 3.885780586188048e-16 1.1102230246251565e-16 1.1102230246251565e-16
          -0.477425952032022 0.6755843574184586 0.6952905486839877 -0.1521139948038634 0.6215476023875721 -0.33875699865130476
          0.6195043982257471 -0.30015172370811993 0.33059835656436565 -0.12854362312351292 -0.04437828345101802 0.3506127953001514
          2.7755575615628914e-16 5.551115123125783e-17 2.220446049250313e-16 1.1102230246251565e-16 -1.6653345369377348e-16 -1.6653345369377348e-16
          -1.3877787807814457e-16 -4.996003610813204e-16 0.082191706148463 0.0587236100403295 -0.06384564681315036 -0.08842292313245692
          0.7175512041390174 -0.19287993195811493 -0.19200541289557507 -5.551115123125783e-17 5.551115123125783e-17 0
          1.6653345369377348e-16 5.551115123125783e-17 -1.3877787807814457e-16 2.7755575615628914e-16 1.1102230246251565e-16 4.440892098500626e-16
          2.7755575615628914e-16 1.6653345369377348e-16 1.1102230246251565e-16 1.942890293094024e-16 5.551115123125783e-17 -5.551115123125783e-17
          1.1102230246251565e-16 -1.6653345369377348e-16 -1.1102230246251565e-16 -5.551115123125783e-17 -4.440892098500626e-16 1.1102230246251565e-16
          1.1102230246251565e-16 1.3877787807814457e-16 1.1102230246251565e-16 1.6653345369377348e-16 0.4800719763136102 0.4062653699068718
          -0.4116382673706755 -0.1354280245063309 -5.551115123125783e-17 -2.220446049250313e-16 -5.551115123125783e-17 -1.1102230246251565e-16
          -1.1102230246251565e-16 -4.440892098500626e-16 -5.551115123125783e-17 1.6653345369377348e-16 -0.07932353602028244 0.01061896351766295
          0.1138403987823875 0.09788104472343812 1.1102230246251565e-16 -1.6653345369377348e-16 -2.220446049250313e-16 -1.1102230246251565e-16
          0.5315081816017553 -0.15579706184197634 -0.18527462442420856 0.6786631850433935 1.1102230246251565e-16 5.551115123125783e-17
          1.1102230246251565e-16 -5.551115123125783e-17 3.3306690738754696e-16 0 -2.7755575615628914e-16 -2.220446049250313e-16
          0 1.6653345369377348e-16 -1.1102230246251565e-16 -5.551115123125783e-17 0.049865286061996306 2.220446049250313e-16
          -1.942890293094024e-16 -1.1102230246251565e-16 -1.6653345369377348e-16 -1.6653345369377348e-16 2.7755575615628914e-17 -5.551115123125783e-17
          1.6653345369377348e-16 -0.11457093802783605 -0.02290139219906953 0.17556108512958674 3.885780586188048e-16 -3.885780586188048e-16
          5.551115123125783e-16 8.326672684688674e-17 4.440892098500626e-16 -2.7755575615628914e-17 -2.220446049250313e-16 -4.440892098500626e-16
          -1.1102230246251565e-16 -5.551115123125783e-17 -2.220446049250313e-16 -2.220446049250313e-16 -5.273559366969494e-16 0
          2.220446049250313e-16 -5.551115123125783e-17 5.551115123125783e-17 5.551115123125783e-17 -5.551115123125783e-17 0.09830487133568949
          -0.04273506342525479 0.0923060878192237 -0.01255885322554473 0.019695629560977646 -0.010689076282533072 0.039289684959615795
          -0.01568374774546938 1.1102230246251565e-16 5.551115123125783e-17 -2.220446049250313e-16 -3.885780586188048e-16 1.1102230246251565e-16
          -6.106226635438361e-16 2.220446049250313e-16 -2.220446049250313e-16 1.6653345369377348e-16 5.551115123125783e-17 -2.220446049250313e-16
          -2.7755575615628914e-17 2.7755575615628914e-16 -5.551115123125783e-17 5.551115123125783e-17 1.6653345369377348e-16 -1.3877787807814457e-16
          -2.220446049250313e-16 0.010889459986929084 -0.0031835882262442605 -0.01720392503742596 -0.011280498347404466 -1.6653345369377348e-16
          -1.6653345369377348e-16 -2.7755575615628914e-16 -5.551115123125783e-16 1.6653345369377348e-16 -5.551115123125783e-17 2.498001805406602e-16
          1.1102230246251565e-16 0 0 5.551115123125783e-17 2.220446049250313e-16 5.551115123125783e-17
          -0.12217457845796437 -1.6653345369377348e-16 -0.09414163437771282 1.3877787807814457e-16 0.12542684972433554 0
          0.09634137886216962 -2.7755575615628914e-16 0 -1.1102230246251565e-16 1.1102230246251565e-16 1.6653345369377348e-16
          -1.1102230246251565e-16 0 -5.551115123125783e-17 1.1102230246251565e-16 1.3877787807814457e-16 -1.1102230246251565e-16
          -5.551115123125783e-17 2.220446049250313e-16 -0.10544200484962173 -0.13937233466235946 0.0899168814009198 -2.7755575615628914e-16
          8.326672684688674e-17 -1.3877787807814457e-16 0 -3.0531133177191805e-16 -5.551115123125783e-17 -2.220446049250313e-16
          -5.551115123125783e-17 0 -2.498001805406602e-16 0.012852523893163936 -0.03741633613709064 0.04489039468571443
          0.07351085160430443 -0.09470966354270283 0.024594903211115182 0.08584866571072924 -5.551115123125783e-17 -2.7755575615628914e-16
          -2.220446049250313e-16 -2.220446049250313e-16 2.7755575615628914e-17 1.1102230246251565e-16 2.7755575615628914e-16 -5.551115123125783e-17
          1.6653345369377348e-16 2.7755575615628914e-17 3.885780586188048e-16 -1.1102230246251565e-16 -0.35007495463560173 1.0182697639331764
          -0.4292880039877837 1.0816383814250234 1.6653345369377348e-16 5.551115123125783e-17 3.885780586188048e-16 -1.1102230246251565e-16
          -0.2519142282947864 -3.3306690738754696e-16 5.551115123125783e-17 -0.27794483148762905 0 1.3877787807814457e-16
          5.551115123125783e-17 -2.220446049250313e-16 1.1102230246251565e-16 2.7755575615628914e-16 -2.7755575615628914e-16 1.6653345369377348e-16
          0.036516454516127395 3.0531133177191805e-16 0.07103709593341034 -1.1102230246251565e-16 -1.6653345369377348e-16 0.11803073114221355
          1.3877787807814457e-16 0 0.12702655837357296 -5.551115123125783e-17 -1.6653345369377348e-16 -5.551115123125783e-17
          -1.6653345369377348e-16 5.551115123125783e-17 -1.6653345369377348e-16 3.3306690738754696e-16 0 -1.6653345369377348e-16
          -1.1102230246251565e-16 2.220446049250313e-16 3.608224830031759e-16 -0.052407991483938654 0.12003129627864206 0.1133846670618383
          -0.02388712503000523 3.885780586188048e-16 -0.004564552300743929 -1.3877787807814457e-16 0 -1.1102230246251565e-16
          1.6653345369377348e-16 -0.08352526166630958 -1.6653345369377348e-16 -0.15682145518106802 -3.3306690738754696e-16 0
          1.6653345369377348e-16 1.3877787807814457e-16 -4.440892098500626e-16 1.1102230246251565e-16 -3.3306690738754696e-16 5.551115123125783e-17
          0.17385431503442872 0.04690720842281551 -0.04241557863006458 0 1.1102230246251565e-16 1.1102230246251565e-16
          -1.1102230246251565e-16 -0.04572311830802389 2.7755575615628914e-16 1.6653345369377348e-16 -1.1102230246251565e-16 1.6653345369377348e-16
          2.7755575615628914e-16 4.440892098500626e-16 0 3.3306690738754696e-16 0.6084727186559309 -0.323607146873382
          -0.3487747938815904 0.5040555271596834 2.7755575615628914e-17 2.220446049250313e-16 1.1102230246251565e-16 1.1102230246251565e-16
          -2.220446049250313e-16 -3.608224830031759e-16 -2.220446049250313e-16 1.6653345369377348e-16 2.220446049250313e-16 2.7755575615628914e-17
          2.7755575615628914e-16 5.551115123125783e-17 8.326672684688674e-17 0 5.551115123125783e-17 -5.551115123125783e-17
          -1.1102230246251565e-16 0 1.1102230246251565e-16 2.7755575615628914e-16 0.013136781195730307 -0.010255837187922945
          -0.004386869130965698 0.010224996408102816 0 -1.1102230246251565e-16 -1.6653345369377348e-16 0
          1.1102230246251565e-16 1.942890293094024e-16 -5.551115123125783e-17 0 -0.04045397328192557 0.4517247721472686
          -0.050622080285325666 -0.16715492191292913 -0.09173490008793661 0.08558596810788885 2.7755575615628914e-16 5.551115123125783e-17
          2.7755575615628914e-17 -2.7755575615628914e-16 3.885780586188048e-16 -0.04843624486474382 -0.04600680011174979 0.03980056196374429
          1.1102230246251565e-16 1.1102230246251565e-16 5.551115123125783e-17 -3.885780586188048e-16 1.6653345369377348e-16 -1.1102230246251565e-16
          -1.6653345369377348e-16 -0.14951520494283382 -0.12028996325531394 -0.09738111673723315 -2.7755575615628914e-16 1.6653345369377348e-16
          5.551115123125783e-17 5.551115123125783e-17 -0.1096951770993016 -0.0764241250914316 0.2936186669773641 -0.03962517538619026
          0.32490922109568365 0.17079018461911688 -0.0748487399953478 0.17926294140927457 2.498001805406602e-16 -3.3306690738754696e-16
          -1.1102230246251565e-16 3.3306690738754696e-16 1.6653345369377348e-16 -1.942890293094024e-16 1.1102230246251565e-16 -4.996003610813204e-16
          3.3306690738754696e-16 -3.3306690738754696e-16 -1.6653345369377348e-16 4.440892098500626e-16 -0.028719770249975518 0.08058886724728676
          0.03442704388010104 -0.032624205482152 -0.043834129488487084 0.03230967556863992 -8.326672684688674e-17 0
          -2.220446049250313e-16 -1.1102230246251565e-16 -4.440892098500626e-16 -2.220446049250313e-16 1.1102230246251565e-16 -5.551115123125783e-17
          1.1102230246251565e-16 2.220446049250313e-16 1.6653345369377348e-16 -1.1102230246251565e-16 -0.13617543889593417 -0.10611078427956984
          0.19132688144464327 0.16164627437299522 -0.13458384748039634 -3.885780586188048e-16 -0.1947976931502235 5.551115123125783e-17
          -1.6653345369377348e-16 -1.6653345369377348e-16 -3.3306690738754696e-16 3.3306690738754696e-16 2.220446049250313e-16 -2.220446049250313e-16
          -3.0531133177191805e-16 -1.1102230246251565e-16 -1.6653345369377348e-16 2.7755575615628914e-17 -5.551115123125783e-17 2.7755575615628914e-16
          -1.1102230246251565e-16 -0.0178644611716533 -1.1102230246251565e-16 -0.011693560586407803 2.7755575615628914e-16 -2.7755575615628914e-16
          1.6653345369377348e-16 -1.3877787807814457e-16 -0.08761309643032839 -0.07203522018419695 -5.551115123125783e-17 0
          4.440892098500626e-16 -3.3306690738754696e-16 -2.220446049250313e-16 -4.996003610813204e-16 1.3877787807814457e-16 2.220446049250313e-16
          -5.551115123125783e-17 1.6653345369377348e-16 -0.044624868574057786 0.09115001887335841 -0.040584707489623284 2.220446049250313e-16
          -5.551115123125783e-17 5.551115123125783e-17 5.412337245047638e-16 1.6653345369377348e-16 2.220446049250313e-16 -3.608224830031759e-16
          8.326672684688674e-17 -1.1102230246251565e-16 2.7755575615628914e-16 -4.440892098500626e-16 -1.1102230246251565e-16 2.220446049250313e-16
          -0.025487796324697387 0.08483428370718377 -0.011639080525340129 0.0983396318441547 0.01599833387018118 3.3306690738754696e-16
          0.015168566189673327 1.6653345369377348e-16 5.551115123125783e-17 -5.551115123125783e-17 5.551115123125783e-17 5.551115123125783e-17
          1.1102230246251565e-16 0.021738447901759106 2.220446049250313e-16 0.08520050974701304 0 -2.498001805406602e-16
          -3.0531133177191805e-16 1.1102230246251565e-16 0 3.0531133177191805e-16 -1.6653345369377348e-16 -5.551115123125783e-17
          -0.2975848166175886 0.7073824880157378 0.8011003828806482 -0.3924347345041773 -4.163336342344337e-16 -1.6653345369377348e-16
          3.3306690738754696e-16 -0.37249646051685054 0.7631328527431203 0.7777556318233012 -0.3020411307196545 0.27484213786273415
          -0.10527736909177848 -0.0433246288112667 0.23732588546684885 5.551115123125783e-17 0 -5.551115123125783e-17
          -5.551115123125783e-17 -5.551115123125783e-17 -1.6653345369377348e-16 -1.1102230246251565e-16 5.551115123125783e-17 -1.1102230246251565e-16
          1.6653345369377348e-16 -1.6653345369377348e-16 1.6653345369377348e-16 -2.7755575615628914e-17 -3.885780586188048e-16 -1.1102230246251565e-16
          -1.6653345369377348e-16 8.326672684688674e-17 3.885780586188048e-16 0 -0.11811244699655377 1.1102230246251565e-16
          -5.551115123125783e-17 1.6653345369377348e-16 -3.3306690738754696e-16 -5.551115123125783e-17 -2.7755575615628914e-17 -2.7755575615628914e-16
          -1.1102230246251565e-16 -5.551115123125783e-17 1.6653345369377348e-16 -6.938893903907228e-17 5.551115123125783e-17 -0.03412474182736616
          0.2857084560716601 -0.13069304516730618 -0.1695267154286888 -2.7755575615628914e-16 -2.220446049250313e-16 8.326672684688674e-17
          5.551115123125783e-17 -0.02557722903170756 2.7755575615628914e-17 -5.551115123125783e-17 -0.03319976632122043 3.885780586188048e-16
          0 1.6653345369377348e-16 1.6653345369377348e-16 -0.2521475364739648 -0.18524243439808818 0.34528755168357406
          5.551115123125783e-17 -1.1102230246251565e-16 -5.551115123125783e-17 0 1.6653345369377348e-16 -0.15059818381088597
          2.7755575615628914e-17 1.1102230246251565e-16 -0.14558697174441482 -1.1102230246251565e-16 -2.220446049250313e-16 2.220446049250313e-16
          -2.7755575615628914e-16 -1.6653345369377348e-16 -2.7755575615628914e-17 5.551115123125783e-17 -1.3877787807814457e-16 4.440892098500626e-16
          5.551115123125783e-17 -1.6653345369377348e-16 -2.220446049250313e-16 2.220446049250313e-16 -1.3877787807814457e-16 -2.220446049250313e-16
          0 -0.06892160372863376 0.04572382788579099 -0.10598300714976056 0.11860710216258413 5.551115123125783e-17
          1.3877787807814457e-16 -1.6653345369377348e-16 0.28573654998585923 -0.13799962384684775 -0.20107386400537802 0.2901107333538308
          -3.885780586188048e-16 -2.7755575615628914e-16 -5.551115123125783e-17 4.996003610813204e-16 -1.6653345369377348e-16 -1.1102230246251565e-16
          2.7755575615628914e-16 -2.220446049250313e-16 1.6653345369377348e-16 -0.037814816546297814 -0.2769252419097494 0.868509924563398
          -0.42245077486173477 0.7991143445223527 -1.3877787807814457e-16 -5.551115123125783e-17 0 3.885780586188048e-16
          3.3306690738754696e-16 -0.5235868759995773 1.6653345369377348e-16 0 -4.996003610813204e-16 -1.1102230246251565e-16
          -0.012133210187551147 2.220446049250313e-16 -1.3877787807814457e-16 5.551115123125783e-17 -1.1102230246251565e-16 3.885780586188048e-16
          2.7755575615628914e-17 3.885780586188048e-16 -3.3306690738754696e-16 2.220446049250313e-16 -5.551115123125783e-17 -3.3306690738754696e-16
          2.7755575615628914e-16 -1.1102230246251565e-16 2.7755575615628914e-16 0.6101704846768831 -0.21811978803528925 -0.3625948476208368
          0.5796173049836674 -0.1651260056994045 -0.23111011966358913 0.14175636959597127 0.19038496028103025 -1.6653345369377348e-16
          -2.220446049250313e-16 -1.1102230246251565e-16 5.551115123125783e-17 5.551115123125783e-17 1.1102230246251565e-16 0.07574481286649104
          -0.08713601572641205 0.03321708191960843 -0.07927110864145473 5.551115123125783e-17 -1.942890293094024e-16 -0.07090406051495868
          -0.027686490673934416 0.07144222886638374 -0.11467453235108266 4.440892098500626e-16 -0.2522001599417845 -0.15369078608504966
          0.14334607526049853 -2.7755575615628914e-16 1.6653345369377348e-16 1.6653345369377348e-16 5.551115123125783e-17 -5.551115123125783e-17
          -1.3877787807814457e-16 0.04674427305368439 -0.0900784042654818 -0.08520983257334047 0.10704157600559011 -1.1102230246251565e-16
          -8.326672684688674e-17 -2.220446049250313e-16 -1.6653345369377348e-16 1.1102230246251565e-16 0.01567822188262019 0.016500933996743794
          1.1102230246251565e-16 2.220446049250313e-16 -5.551115123125783e-17 1.1102230246251565e-16 0 -3.0531133177191805e-16
          5.551115123125783e-17 -2.220446049250313e-16 -1.6653345369377348e-16 -0.1766629009031918 -1.1102230246251565e-16 -2.220446049250313e-16
          -0.16153897845172843 -2.220446049250313e-16 -1.1102230246251565e-16 -5.551115123125783e-17 0 -2.220446049250313e-16
          4.718447854656915e-16 -2.7755575615628914e-16 4.440892098500626e-16 -5.551115123125783e-16 -1.6653345369377348e-16 -2.220446049250313e-16
          5.551115123125783e-17 -5.551115123125783e-17 1.1102230246251565e-16 0 5.551115123125783e-17 1.6653345369377348e-16
          0 -1.3877787807814457e-16 3.608224830031759e-16 -1.1102230246251565e-16 1.6653345369377348e-16 -2.220446049250313e-16
          -5.551115123125783e-17 1.6653345369377348e-16 -1.3877787807814457e-16 -5.551115123125783e-17 1.1102230246251565e-16 -3.3306690738754696e-16
          -2.7755575615628914e-17 0.05817796263866237 -0.04072532824434777 -0.09480292567179649 0.006137090658568711 -0.010913481076187781
          0.011689841966848025 -0.01660774136468357 0.01424829439075831 0 0 -4.163336342344337e-16
          -3.3306690738754696e-16 -1.1102230246251565e-16 -1.6653345369377348e-16 1.1102230246251565e-16 -1.6653345369377348e-16 0
          -5.551115123125783e-17 5.551115123125783e-17 1.6653345369377348e-16 1.6653345369377348e-16 5.551115123125783e-17 -2.7755575615628914e-16
          -1.6653345369377348e-16 -1.5265566588595902e-16 -1.1102230246251565e-16 1.6653345369377348e-16 2.7755575615628914e-16 1.6653345369377348e-16
          1.1102230246251565e-16 5.551115123125783e-17 -1.1102230246251565e-16 2.220446049250313e-16 6.106226635438361e-16 -2.7755575615628914e-16
          -1.6653345369377348e-16 -2.7755575615628914e-16 0 -3.885780586188048e-16 -2.220446049250313e-16 -1.1102230246251565e-16
          -5.551115123125783e-17 1.6653345369377348e-16 5.551115123125783e-17 -0.2636507382591682 1.6653345369377348e-16 -2.498001805406602e-16
          1.1102230246251565e-16 -2.220446049250313e-16 -2.7755575615628914e-16 -3.3306690738754696e-16 0 -5.551115123125783e-17
          2.220446049250313e-16 0.0014603222922514036 0.007181906852453457 1.1102230246251565e-16 -8.326672684688674e-17 0
          4.996003610813204e-16 1.1102230246251565e-16 -1.1102230246251565e-16 -2.220446049250313e-16 2.7755575615628914e-16 1.1102230246251565e-16
          0 1.942890293094024e-16 1.1102230246251565e-16 0 -1.942890293094024e-16 0
          -3.885780586188048e-16 3.885780586188048e-16 1.6653345369377348e-16 0 5.273559366969494e-16 -1.1102230246251565e-16
          -1.6653345369377348e-16 -5.551115123125783e-17 3.0531133177191805e-16 -2.220446049250313e-16 1.1102230246251565e-16 1.942890293094024e-16
          -5.551115123125783e-17 -5.551115123125783e-17 2.7755575615628914e-16 3.0531133177191805e-16 -1.1102230246251565e-16 1.6653345369377348e-16
          -5.551115123125783e-17 5.551115123125783e-17 1.1102230246251565e-16 -2.498001805406602e-16 -1.3877787807814457e-16 5.551115123125783e-17
          -3.885780586188048e-16 1.1102230246251565e-16 -3.3306690738754696e-16 2.220446049250313e-16 1.1102230246251565e-16 0
          -1.6653345369377348e-16 -3.885780586188048e-16 0.08514841461367456 5.551115123125783e-17 1.6653345369377348e-16 0.04865410681707988
          -0.08240722963249283 0 -1.6653345369377348e-16 5.551115123125783e-17 1.1102230246251565e-16 1.1102230246251565e-16
          2.220446049250313e-16 5.551115123125783e-17 1.6653345369377348e-16 0 0 -1.1102230246251565e-16
          -2.220446049250313e-16 -1.6653345369377348e-16 0 -1.6653345369377348e-16 1.942890293094024e-16 1.6653345369377348e-16
          -5.551115123125783e-17 -1.6653345369377348e-16 3.3306690738754696e-16 0.011826278491510633 5.551115123125783e-17 0.013595599584930174
          -1.6653345369377348e-16 -0.3129340238426185 -0.2591559944224504 0.5194598658740379 5.551115123125783e-17 1.1102230246251565e-16
          -5.551115123125783e-16 5.551115123125783e-17 -1.1102230246251565e-16 -1.3877787807814457e-16 0 -4.440892098500626e-16
          -1.1102230246251565e-16 1.6653345369377348e-16 -1.1102230246251565e-16 0 -1.6653345369377348e-16 -1.6653345369377348e-16
          1.1102230246251565e-16 -2.498001805406602e-16 1.6653345369377348e-16 2.7755575615628914e-17 -1.942890293094024e-16 1.6653345369377348e-16
          1.6653345369377348e-16 -5.551115123125783e-17 1.1102230246251565e-16 1.6653345369377348e-16 -1.6653345369377348e-16 -1.6653345369377348e-16
          0.052011079240648794 0.12701411128799633 -2.7755575615628914e-16 -0.059973362397209184 0 -1.6653345369377348e-16
          -0.19330629262270124 -0.08544157960614235 -1.6653345369377348e-16 0.03990688002325998 0.03139156025785328 0.02285516532288899
          1.1102230246251565e-16 1.6653345369377348e-16 5.551115123125783e-17 0 -5.551115123125783e-17 -3.3306690738754696e-16
          2.220446049250313e-16 -5.551115123125783e-17 -5.551115123125783e-17 2.7755575615628914e-16 5.551115123125783e-17 5.551115123125783e-17
          0 1.1102230246251565e-16 -5.551115123125783e-17 5.551115123125783e-17 8.326672684688674e-17 -0.02247613188572556
          -0.20038598828653736 0.6350339416330656 -0.2826120499556225 -0.07214828170264542 0.05462192357286849 0.15666440007900728
          -0.004850552361332444 4.440892098500626e-16 -1.1102230246251565e-16 -1.6653345369377348e-16 1.1102230246251565e-16 -0.010277058741637424
          -1.6653345369377348e-16 0 -4.440892098500626e-16 -5.551115123125783e-17 -1.6653345369377348e-16 1.1102230246251565e-16
          -3.3306690738754696e-16 0 5.551115123125783e-17 -3.885780586188048e-16 -5.551115123125783e-17 -1.6653345369377348e-16
          -3.3306690738754696e-16 -5.551115123125783e-17 -2.7755575615628914e-16 0 0.16792966123384812 3.885780586188048e-16
          1.6653345369377348e-16 0.11480652217901971 -0.08770837698097173 5.551115123125783e-17 -0.09832265618990976 0
          0.7298635959558495 -0.33394649234722995 -4.996003610813204e-16 2.220446049250313e-16 -8.326672684688674e-17 5.551115123125783e-17
          -0.0044916698563805535 -0.004937889758656389 2.7755575615628914e-16 0.014361492807914322 -1.6653345369377348e-16 5.551115123125783e-17
          1.1102230246251565e-16 3.3306690738754696e-16 2.220446049250313e-16 -5.551115123125783e-16 1.6653345369377348e-16 3.885780586188048e-16
          2.7755575615628914e-16 -1.6653345369377348e-16 0.14154251899821357 0.10863760456297306 -1.1102230246251565e-16 -0.08741739532805826
          -3.3306690738754696e-16 -1.1102230246251565e-16 -0.10436000333038986 -0.06990993089836069 2.7755575615628914e-16 -0.08705912821816544
          0 3.3306690738754696e-16 -0.07934814045734817 -5.551115123125783e-17 -0.04879161118076181 -1.1102230246251565e-16
          0.37187038668683564 -5.551115123125783e-17 1.1102230246251565e-16 -2.220446049250313e-16 1.1102230246251565e-16 -0.0020746617893205865
          3.3306690738754696e-16 2.220446049250313e-16 -1.1102230246251565e-16 -0.05021377006039124 2.7755575615628914e-16 4.440892098500626e-16
          -0.1347208210216918 -0.10301566919239341 1.6653345369377348e-16 -1.6653345369377348e-16 -0.3444022629477102 0.8352168686953683
          1.0919304696198182 0.159738655752242 -0.11824476116515581 3.3306690738754696e-16 -8.326672684688674e-17 0
          0 1.6653345369377348e-16 5.551115123125783e-17 -5.551115123125783e-17 -1.1102230246251565e-16 -1.6653345369377348e-16
          -0.03796438547289849 2.220446049250313e-16 1.1102230246251565e-16 -0.08056865491664639 -0.028327194627779384 5.551115123125783e-17
          0.18026178402583748 -0.35747083473033436 1.1468382313782497 0.9559749198650396 -0.6886273822214394 -1.6653345369377348e-16
          -2.220446049250313e-16 5.551115123125783e-17 8.326672684688674e-17 0.31515388271459155 0.20628558299695743 -0.24380874451187004
          -0.3384385397680828 0 1.1102230246251565e-16 2.7755575615628914e-16 -1.1102230246251565e-16 1.1102230246251565e-16
          2.220446049250313e-16 -5.551115123125783e-17 -4.996003610813204e-16 -0.15914916334127127 0.5912305491208252 0.5320920436782132
          -0.29952674663012036 -1.6653345369377348e-16 -1.6653345369377348e-16 -3.885780586188048e-16 1.6653345369377348e-16 -1.1102230246251565e-16
          8.326672684688674e-17 -2.220446049250313e-16 -1.6653345369377348e-16 0 -0.3714878681526425 0.07585977798811905
          0.08451437072691903 0.10065981443326505 -0.08173736207628718 0.06304207422518932 -0.015868473806071093 -2.220446049250313e-16
          0 -3.3306690738754696e-16 1.1102230246251565e-16 -1.3877787807814457e-16 1.6653345369377348e-16 1.6653345369377348e-16
          1.1102230246251565e-16 -0.00786074968436462 -3.3306690738754696e-16 -4.996003610813204e-16 -2.7755575615628914e-16 1.6653345369377348e-16
          -3.885780586188048e-16 -2.7755575615628914e-16 -2.220446049250313e-16 0 -1.6653345369377348e-16 8.326672684688674e-17
          2.7755575615628914e-16 0.012284318581903375 -8.326672684688674e-17 2.220446049250313e-16 -5.551115123125783e-17 2.7755575615628914e-16
          -1.6653345369377348e-16 -2.220446049250313e-16 1.1102230246251565e-16 2.7755575615628914e-16 -1.6653345369377348e-16 -5.551115123125783e-17
          -0.34214327915967524 -0.18679755264604703 0.8414897106315857 -2.220446049250313e-16 -1.1102230246251565e-16 0
          1.3877787807814457e-16 -5.551115123125783e-17 -2.7755575615628914e-16 -2.220446049250313e-16 -5.551115123125783e-17 8.326672684688674e-17
          2.7755575615628914e-16 -5.551115123125783e-17 -2.220446049250313e-16 -2.220446049250313e-16 2.7755575615628914e-16 2.220446049250313e-16
          -1.1102230246251565e-16 0 -5.551115123125783e-17 1.1102230246251565e-16 -5.551115123125783e-17 -5.551115123125783e-17
          -5.551115123125783e-17 5.551115123125783e-17 5.551115123125783e-17 5.551115123125783e-17 2.7755575615628914e-16 0
          -2.498001805406602e-16 4.440892098500626e-16 -0.05494080022466069 0.43708434965771775 -0.216781202893701 -0.2863024840606952
          -2.7755575615628914e-16 -5.551115123125783e-17 3.3306690738754696e-16 1.1102230246251565e-16 8.326672684688674e-17 0
          -2.7755575615628914e-16 0.030372926254122357 0 1.1102230246251565e-16 0.027264975314087447 0.012473105737736023
          5.551115123125783e-17 -2.7755575615628914e-17 -1.6653345369377348e-16 1.1102230246251565e-16 2.220446049250313e-16 -2.7755575615628914e-17