<?xml version="1.0"?>
<VTKFile type="UnstructuredGrid" version="1.0" byte_order="LittleEndian" header_type="UInt64" compressor="vtkZLibDataCompressor">
  <UnstructuredGrid>
    <FieldData>
      <DataArray type="Int8" Name="OGS_VERSION" NumberOfTuples="5" format="ascii" RangeMin="46" RangeMax="54">
        54 46 52 46 49
      </DataArray>
    </FieldData>
    <Piece NumberOfPoints="12654" NumberOfCells="25000">
      <PointData>
        <DataArray type="Float64" Name="HydraulicFlow" format="ascii" RangeMin="-0.2942190910169118" RangeMax="0.4381386157534106">
          0.0001060503112269573 0.00010611941990107399 0.00010132251249839186 0.00011209967616393479 0.00009252169266099619 0.00013764613180811125
          0.00011699820591648535 0.00006165579227879192 0.00007674075853186801 0.00006944126819308227 0.00005604709779516437 0.0000747515816038602
          0.00006915881849381411 0.000059636134648988204 0.000048409674657245994 0.00006636862034631319 -0.006308397966156565 -0.006265082416849643
          0.0001357125715530927 -0.006535470838769545 0.00006170926889792483 0.00006998840730368383 0.00006065096675600401 0.00006585569561678994
          0.00004987614732282486 0.00007689297160062836 0.00008344122443915136 0.00006363881567411633 0.00007193982868020088 0.00010753749564290649
          -0.03444360358395404 0.00007607699674960777 -0.022997506231181686 0.00007483561363663682 0.00007301731354597552 0.00004684491079037789
          0.00004811221038303337 0.0005292807050311099 0.0003680673967382253 0.0002507530113800005 0.0003925626312025754 0.00006315352828031862
          0.00007276410085363394 0.00005057593396284865 0.00006116773084602345 0.00011557252681160257 0.00012310204688614768 0.00012788123349899427
          0.0000989143801690684 0.0022788570410137154 0.00006753463007586058 0.00006699599663950728 0.000043455023490734934 0.00026654628303934835
          0.0004166211746849946 0.0002646188044441722 0.0002039569959167986 0.001468995671869533 0.001052324441242869 0.0008545693236717833
          0.0009188938250490608 0.00022656824898104055 0.0003591587561170284 0.00032206170515136634 0.00017632026279135182 -0.0009740843638550434
          -0.004909486225948986 0.00045721492459455115 -0.010766123199442368 0.00009485559051086723 0.00008647132677858105 -0.010225448560264971
          0.00007113644276957043 0.00011443845234201944 0.00005031736524990782 0.0001209196489935227 0.0008285040655340858 0.0008747538958201462
          0.0005791602094720183 0.0006014435640102067 2.7755575615628914e-16 -0.008837776536616604 -0.009842279294297984 -2.7755575615628914e-16
          0.002940201791078817 0.002448853940360207 0.003389486679761078 0.0019188163557960214 0.00009246381842892282 -0.0015346970612238886
          -0.007929230632984008 0.00009105324984814978 -0.019984401498292725 -0.008861858825171515 0.0009182582536991085 -0.025246638352910522
          0.000090003684600104 -0.005654150679097691 0.00008015720899268164 0.005871041090300233 0.006793424877567122 0.004686732692698203
          0.004085509216937733 0.0006258393429777742 0.0006315323821921015 0.0006008737531280617 0.000385668601394773 0.00011869171427714154
          0.00010858916647199512 0.00009618557251955817 0.00011354818475556305 0.00012363960906608407 0.00010340005889247772 0.00007486094559050471
          0.0000675307767241673 0.00026100305243142996 0.0001713125397181381 0.00022134168624871053 0.00019615092848507265 -3.0531133177191805e-16
          1.1102230246251565e-16 -5.551115123125783e-17 -2.7755575615628914e-17 0.00011142649440576413 0.0001054439759851089 0.00010586110813037841
          0.00011859001647512857 -0.005146217659607544 0.00006462376596028108 -0.0011961116163143881 0.00005971283612410394 0.0013199212121916548
          0.0016780634784564208 0.0012140349942319495 0.001172123746321252 0.0007927757396369861 0.0009532413870533274 0.0005206866440071733
          0.0008796583407110203 0.0006709286021550076 0.0006457864160832605 0.0007133076221689238 0.0004294635822764681 0.00008285794805851232
          0.0000888584523481839 0.000076013404873565 0.0000932116445135911 0.0002618673590233378 0.00031475588191476334 0.00021277317765444614
          0.00031287148155012545 0.00004175079659812786 0.00004461957828733043 0.00003856990014117212 0.000045410806111145785 0.00004301892776004124
          0.0001486349660843045 0.0001768260758950868 0.00011788370307697082 0.00016535989745958268 -0.008419257036049094 -2.498001805406602e-16
          2.7755575615628914e-17 -0.006163847645798026 0.00008625579074739154 0.00007526803939233995 0.00006812560760555142 0.00007352201712690354
          0.0000726707453338471 -0.01836187866005079 -0.004954036298462694 0.00007100667097303948 0.000928738975387644 0.00006739371189928844
          -0.003433961807197239 0.0000554589908616232 -0.014115219192857187 0.0000687771402199111 0.0000621916471291728 -0.007299564985060403
          0.00008172045175869336 0.00008279975530667283 0.00006837182902125205 0.00005950886288647039 0.0005352008082727955 0.0006405944980910627
          0.0004254834802361329 0.0006319800847998103 -0.03407298969795916 -0.02435872706370823 0.0011461934882781022 0.0010274136729812589
          -0.1296032272187958 -0.07390302898287232 0.03202169167883884 0.0012027668086433962 0.001485739847923384 0.0009437019546754133
          0.0009669015455127106 0.00008520610474060941 0.00011167266101949624 0.00006827185543306635 0.0001016693636737287 0.0018378285173604736
          0.0014263258964533065 0.0010423870284066439 0.0018617668233376072 0.00022248686925124828 0.0001989586489326567 0.0001569103741984601
          0.00021895531801718882 0.000049922312804262514 0.00005502440806198772 0.00003783525733652704 0.00005525197302114204 0.00125655625000326
          0.001468826142820845 0.0014115121630178529 0.0009636234580341352 0.0013467955205947457 -0.08138179829378905 -0.014023833765770766
          0.0013471138305964914 0.0010398728190781359 0.00004775159528686013 0.000060653244015773655 0.00004782772546102487 0.000032308168308015084
          0.00008979941368192357 0.00007950158003600105 0.0000624776650969272 0.0000920501265654905 -0.0194095010809677 0.000993278774773676
          0.000997861935113531 0.0006908184998385414 0.00008579264665087294 0.00006564377969098256 0.0000590822947934555 0.000055581075165456184
          -0.0064877281965404765 0.00007611437857457659 0.00007573243726433088 -0.008073392347131697 0.0001682894883658359 0.00025998655029418893
          0.00011947837319536969 0.00022664006160089123 0.0002150005031785751 0.00021151664090429678 0.00016257984992673613 0.0002023818649667941
          0.00006596270319958464 0.00006938497516156827 0.00006894460595902041 0.00007247529015791399 0.0011038513321122434 0.0005430297097325787
          0.0006293788349321927 0.00042300979229970004 0.0006293715161189706 0.0003396162872011388 0.0004010500007245732 0.0003463358002629424
          0.000267739718856852 -0.007880975571397358 -0.0009766166642099228 0.0011737641316033054 0.00020060106879637996 0.0005166766798681
          0.00017754076184062217 0.0002955660337151944 0.0001696550836971511 0.00034422384098645176 0.00022495465603744602 0.00013688257512833868
          0.0001769970036435975 0.0002609869731612924 0.00005708848868868355 0.0002969868143568033 0.00024393626981378258 0.00017846317360664665
          0.0001594784673936145 0.0002056028918585029 0.0012519576780233854 0.0010208101254623458 0.0007976698167543872 0.0014833225074055711
          0.00007576646663104425 -0.002918017136283091 0.00006678968705661759 -0.01168991215913634 0.00011303099918963389 -0.0027456096896976423
          0.00005926380590604019 0.0005500377968868375 0.00043301530402056754 0.00035190698370635154 0.0004882385816951107 0.00009625431110460436
          0.00011780550284368196 0.00009051072091825763 0.00011071273515930735 0.000094869183983326 0.00008264066109447965 0.00006653527798894388
          0.00009314780753488794 0.00006260626234477762 0.0001204673016631519 0.00011331526322777563 0.00009630304038749093 0.00010331725017942439
          0.00015061376398112225 0.0001958692295888631 0.0000737828533640128 0.00006524033090143933 0.00007779302423477352 0.00017361024762085897
          0.00010978391498783768 0.00009805470905799307 0.0000854714756878816 0.00011524430470966074 0.0050370552303010685 0.005033468874613395
          0.0048343085479993775 0.0049441752573189945 0.00010467956698173575 0.00008794423060431988 0.00009275734661612356 0.00007665093819136937
          -0.007718940995298684 -1.6653345369377348e-16 -0.006015677840806241 1.3877787807814457e-16 0.001575089982930461 0.002642035743528365
          0.0013906369803202423 0.0020542764779644396 0.00030334090963402005 0.0001880536038212366 0.00018840508001605194 0.00022736246273286076
          0.000964225824873377 0.0007834541904835346 0.0007408329152387427 0.0005337173995167976 0.0001490435559658998 0.0001653089022958243
          0.00010249206100010344 0.00014172979521365203 -0.004635230800975398 -0.005570485921910645 0.0010506233485735872 0.0009681285986664623
          0.0008704139486671592 0.0007090681960169043 0.0006977640447075606 0.00006829724109402857 0.00007267754949258354 0.0000527112971993593
          0.00003846428843712335 0.000058977460155040795 0.00005286513160579487 0.034519415814298626 -0.017606924887702186 0.0006726595032360561
          0.00004464581515570276 -0.014532009343111385 0.00005298593099256621 0.00005060313125432314 0.0010961200391564896 0.0008981123327583829
          0.0007297476699138494 0.0010370534979649015 0.00010535300286310112 0.00011464040061825997 0.00010306660830483594 0.00011351734754067033
          0.00008200453335782676 0.00009213381253914132 0.00008868967040726039 0.00007336653790457337 0.0000927938810044715 -0.11382083969165352
          0.00009440935785731686 -0.04971914158843982 0.0003937759330921997 0.0005904918269397097 0.00045963464616860517 0.00031085053560542253
          0.0010039897128730768 0.0006148875939989695 0.0006941365388127285 0.0009384180249399909 0.00005561134664183731 0.00006694502423404414
          0.000051920174061609314 0.00005108218765426109 0.00008943289209906169 0.00011773614279886324 0.00007209259224660869 0.00010013127821839607
          -0.009155457299460434 3.0531133177191805e-16 -0.01668680469835082 -1.1102230246251565e-16 0.00005412880666755271 0.00003768032364612206
          0.00004847929858819988 0.00004301508459741976 0.000028831793089267865 0.00014929083304848767 0.00010074339490800943 0.00012469388516533897
          0.00007017824555932695 0.0001172613118997079 0.00009407400634320329 0.00007431422888787287 0.00010619831253322332 0.0016499930256479445
          0.003081666321232912 0.0016524821711342563 0.0019526650851515726 0.0000582701932938523 -0.0060915824660519036 -0.008692482400437629
          0.00005857529327923938 0.00007397489292876314 0.0005165570588291368 0.00020057459661135257 0.00017152385443230944 0.00017302369778510185
          0.00007020528919360336 0.00008996256170518135 0.00007746282168874519 0.000046674939949337135 0.0008293511782024865 0.0009178196166175212
          0.0007363813112798434 0.000989540821805024 0.00011151919382845765 0.00013068401422994258 0.00011982893458861721 0.0000943783015388
          -0.016112596612403607 -0.006971735119456396 0.00039582645596800137 0.00044842934628031017 0.00038740527366865063 0.0003138207845657659
          0.00042014731379758086 0.003536541245835023 0.00008672915751584132 0.00008925105980628345 0.00007080400219078298 0.00009828330493394377
          0.00009697778279649238 0.00010012301620782038 0.00008600290896593199 0.0000974004410800311 -0.011349614220789284 0.00007826201759619789
          0.00004878653857642856 0.0024281234071109603 0.0002543778292171117 0.00031262908987456095 0.0001890110604482187 0.00016087031141420738
          0.00006772455880138528 0.00005392106625717874 0.0000631421856893688 0.000036643006391279265 0.00006109388926595072 0.0000770368733872262
          0.00007147723402106676 0.00004149107070006153 0.00005221978633285218 0.000057292077522030915 0.000032531151931913804 0.00003230586178604167
          0.00013899191701238767 0.00017731736372317286 0.00010941287740412475 0.00017174395262398168 0.004635752534332127 0.00007712909705281934
          0.0000660140457449665 0.0031620699782232142 0.00017764083183352541 0.00008378386956603423 0.0001029971429875598 0.00007029554863674514
          0.00116589348813248 0.0013020252544416189 0.000660206327193269 0.0012535481984812802 0.000043258013390612415 -0.0423987193750254
          0.000023590336443279902 0.000053219544350446846 0.0008400724718092278 -0.035677536321113396 0.0007694102020147642 0.00006158410537504544
          0.00012372736020932473 0.0000676614157284483 0.0000766419701122012 -0.012513503876352972 -0.011831127048114676 0.0013622122476001919
          0.00007308618643803166 0.0002560270025427913 0.00017546591594136407 0.0001599484774032489 0.00019889717320725753 0.0000726914124237199
          -1.6653345369377348e-16 -0.022275501934271746 -0.008540649990493643 -0.012764866997577173 0.0001297511214949365 0.0001305806406729504
          0.00013856410347723447 0.00011527384011650321 -0.019571335145645907 0.00007008582193607227 0.0013141334269151095 0.00006166742812230286
          -0.015063270075898916 0.0004301284992573873 0.00009193383174455061 0.007263199267196485 0.0005914264428504568 0.0004646215696413325
          0.0005513078322382237 0.00033860702549093347 0.00027217666902362714 0.0003042869225827194 0.00022550424599943053 0.00016416469329150196
          0.00008275483421937846 0.0000996758858234914 0.00006757008332075598 0.00009701706786946485 0.007650537340985308 0.0011609849769143588
          -0.006215153931809214 0.00006013749211242203 0.00006682228537013835 -0.005325354086617551 0.000056410240871496153 0.00005883497566488982
          0.00005769150152273861 0.000057245619250023694 0.000459445538915082 0.0003780765801884023 0.00028616884229948347 0.00046923562891315607
          0.00033718457991527284 0.00036567409348065016 0.00027270136768775544 0.000497321849331156 -0.015527813103571292 -0.010056686027272846
          0.0016535202023935658 0.001458430251436993 -0.016737493570583656 -3.885780586188048e-16 -0.029675076356210972 5.551115123125783e-17
          0.000059863457878173154 0.00019115309761702504 0.00016078612026476646 0.00012129716358832976 0.00019473974818895456 0.0000705423920956405
          0.00006762409034749561 0.00003252798586689254 0.0000697744954437085 0.00012261612399219746 0.00009549162240746201 0.00005343672343238737
          0.0001307840948030492 0.00016614443236906418 0.0005833075955959943 0.00015395404412493763 0.0002771331930763732 0.00007387880175163675
          0.13593711948432796 -1.3877787807814457e-16 -0.007732878584850222 -0.006172291297401822 -5.551115123125783e-17 0.00007491803897108351
          0.00009942620609620922 0.00006028243707179026 0.00007181245717546858 0.00017270542369940411 0.00022015794228946728 0.0002056459431485358
          0.00012643818659968664 1.6653345369377348e-16 0.00006476587207276951 -0.004043969761465205 0.000056475122347410256 0.00006954464398362115
          0.00008244497675469198 0.0000942324847912901 0.00008895436579182264 0.00007030536951296851 0.0000996491759696072 0.00008943057440113922
          0.00006701308764203717 0.00009261450903469415 0.0009563920661569414 0.0008023061258445319 0.0007093205852466977 0.0008580654021509426
          0.00008247409177797316 -0.01281628501479426 0.00007283095853954924 -0.007028855064309419 -0.003210923874814975 3.3306690738754696e-16
          -0.0028596112475943736 1.6653345369377348e-16 0.00013449587823843867 0.00014565727430898567 0.00007965129582548913 0.00018841756668525056
          0.00005452344483020122 0.00005873349860946453 0.00005363274722172684 0.000052778386979479563 0.0003853228927545582 0.0003280562304688317
          0.000256123567649591 0.00036522054827231587 0.00015663964964263144 0.00009154504943409414 0.00013278649041936763 0.00006983541741112376
          0.00006977400088914454 -0.021298276700405627 -0.013746632474551934 0.000040923434289297234 0.00008196691725109728 0.00012212008920392536
          0.0000431345809124295 0.00007704497032656743 -0.008603802459418053 0.018079686402660666 0.00007276880047923928 -0.0037664226907704323
          0.00006862750912267623 0.00005714784955052066 -0.0014538201928273042 0.00005506095389717913 0.00005425064452097006 0.000058009679628212574
          0.000047464455146861706 0.00006088903699746906 0.00006780250935367604 0.00006505575773629868 0.0005398140751798342 0.00037711616990609986
          0.00026038942290768086 0.00048264274476822466 0.000057215562473289516 0.000057459470716281213 0.00005238836037330108 0.000057402429390396303
          0.003608156493369985 0.0046484907820827925 0.0024465041139957178 0.0029196328472955724 -0.014525419423890351 0.001981051206774165
          0.001459428188364864 0.0015908819274176866 0.0015143350868995764 0.00011565406218871921 0.0002025155185074734 0.00019258782571590638
          0.00010101158354708373 0.0014585807039604326 0.0012626316233912416 0.11243641429884971 0.0007037322956170433 0.00009383849673894051
          -0.007392423733729003 0.00007330078719475219 0.00005515997243299431 0.00006398570654148061 0.00006560529406629545 0.000058681363374196716
          0.00005792433192217117 0.00006635585226488772 0.00020665636102290552 0.00010157531159982192 0.0001302229286997414 0.00018370425114344613
          0.00014846538918472652 0.00011096035469171373 0.00017857134616261483 0.00004827400791551639 0.00005474398672628 -0.010687076828847064
          0.00004887456182467442 0.0007657413911318356 0.0006553867195768781 0.0007414509025145399 0.0006156053204989798 -0.010524651113972383
          2.7755575615628914e-17 1.1102230246251565e-16 -0.02041729058557873 0.00005159790503028727 0.00005793191366126882 0.000053333030329949516
          0.00008657793370531186 0.0001043217763210813 0.00008811556727500447 0.000060686782871299805 0.0000697054363910099 0.00006478519887442857
          0.00008838556551526988 0.000057081984264073515 0.00008919875122331833 0.00005291534958767885 0.0000611664697799108 0.000043596095389009104
          0.00005467450384655237 -0.0019409050898215874 0.00007935741095355109 -0.0035047733308212203 0.00008002426745096214 0.00036538678122732815
          0.0003869993556410156 0.000517627868257875 0.006140987876850357 0.00006123104179972527 0.0000580948715377394 -0.01830796180946964
          0.00006504889177894047 0.00005441634239478077 0.00006180124307253454 0.00004561458245200267 0.000060295090777318094 0.000042564426865954186
          0.000053298183173455804 0.000029683615015596576 0.00006469114194823655 0.00004573710907240791 0.00009674241981916243 -0.006001922632959122
          0.00007080693369160285 -0.026501796818675594 -1.3877787807814457e-16 -5.551115123125783e-17 0 3.885780586188048e-16
          0.0006969993974970112 0.00008031610974001957 0.00005494853500720431 0.00007124277016826164 0.00006184376189122265 0.00003864597613156828
          0.00007262133575577923 0.00006233321606075037 0.00009900843150811856 0.00009243460827351724 0.00006568532360445856 0.00010463271470190216
          0.0002675629652653111 0.00023145771996607722 0.00014150562238657294 0.00017798777733168958 0.0011870506483203647 0.0010726458912616588
          0.0011009763916415283 0.0010312511812632374 0.00003290272788902815 -0.003198936745994807 0.00007645738115297229 0.000047076282450042584
          -0.005692801905064715 -0.013077069542952457 -0.02502902824336134 0.0019049763241133777 0.001277086610036171 0.0006354925400778866
          0.001013094197739428 0.0005152862140814785 0.0007818911329280365 0.0004855962297866667 0.00007535489543991636 0.0000873943535431021
          -0.012821794920351626 0.00008925992590474996 -0.012262212404417425 0.00007166393665419823 0.0002516826395064231 -0.002003810514930482
          -0.0006963644152288562 0.00007235641466352138 -0.014203265105521723 0.00009443825914651205 -0.020514306850191066 0.0025626176220018004
          0.0015849788179784219 0.00006260558576626218 0.000038228849537136345 0.0001924766331302119 0.00016664809056105012 0.00014760371230049252
          0.00016350382197455327 0.00007359171643733786 -0.004474288394032577 -0.005297964189174165 0.00005472470056322454 0.0003739460696751129
          0.0003229061214611306 0.0003821224103883747 0.0002442512041298528 1.1102230246251565e-16 -0.002882924820308941 -0.0036493554249986127
          1.1102230246251565e-16 0.0004315456189813438 0.00044249211451763415 0.00042013542175406426 0.0003915464522815104 0.00005944479262626201
          0.00006664964150554509 0.00005720933994496358 0.00005798196770601116 0.0008497393165247669 0.0008646334492326546 0.0006682698112518981
          0.0007884671880146188 0.00007891955892069813 0.00007072149244125026 0.00007322383038022018 0.00007258425097630972 0.00022438091122781167
          0.00013502779891752525 0.00018314704451782848 0.000091771208565683 0.0002241917142520311 0.00023319218187645152 0.00019397019824957118
          0.0002333488159398378 0.0007923947820358546 0.00006684327643291521 0.00006923077613923967 0.00007618542253828853 0.00007120844531244286
          0.0000757987415714867 0.00011009534199496462 0.00016660046309530108 0.00008342798279825647 0.0001293054863839016 0.00020165651875625468
          0.00009182218255865404 0.00009845639179478782 0.00009031378510013233 0.00007796384069463924 0.00006967349011260948 0.00007585568080886729
          0.00006140858771169766 0.00006312336215108516 -0.0019436098606719354 -0.0042805440715775744 -0.0009310177680048604 0.00008738490983639657
          -0.0020100999830358623 0.00007229651778339896 -0.0015504261334535197 0.000054498209889397575 0.00006566161937854309 0.000043850767678321745
          0.00006322977008577091 0.0002618880568758808 0.00038531306248779096 0.00034176169228877784 0.0001726336605221146 0.0006068833711070365
          0.0000676147980963604 0.00005680022810544694 0.00006652848089355734 0.00010305133646104636 0.00007528540595191924 0.000060756489252467016
          0.00008851066242610006 0.4028653631919832 -0.24614992768699956 0.0007122516067806783 0.00029900614713151974 0.0002164610318089455
          0.0002666497801093737 0.00017789451607308493 0.0002476007471539088 0.0000687038767245296 0.00005723411950991908 0.0000652805173865234
          0.00004241398540583141 0.00009972082078701927 0.00012935521100876368 0.00003745792067511022 0.000037081410930728254 0.0000738598975010829
          0.00006100105685491464 0.000049194438096367143 0.00006815196961673653 0.000042936901076595646 0.00005075694281447829 0.00005357839750497195
          0.000051648904218826175 0.000049625321168422776 0.000250307527065452 0.00010812929863246445 0.00007938399279455721 0.00020997724163962506
          0.00012850626950258737 0.00008176280778349199 0.00010505245168773714 0.000058251444979784406 0.0009155970200630525 0.0008846526442807812
          0.0005359308905387161 0.000641320202121265 0.00009138741086012203 0.00013414993849480972 0.00005097584774815811 0.0024511383209550597
          0.0028239355344841233 0.002360579035273175 0.0027778861179732495 0.0029755432388197667 0.005350930151234001 0.003794492883611167
          0.0032233644543704643 0.00010843189276765752 0.00028249894440957046 0.00041912902152491105 0.0002200726624297933 0.0004203467532828409
          0.004128460624911456 0.00014549160210722278 0.0001349653168848386 0.00006722239900391891 0.00017633148219037276 0.00026188710959301753
          0.000138891899114868 0.0005386599817193694 0.0004962753741816206 0.0005239046986860174 0.0005570382567218757 0.00047440555609301605
          0.000110831972007841 0.00007492568697153867 0.0000819028256874299 0.0004902662762723553 0.00030810176309692405 0.000334687082731544
          0.0001496736199178561 0.0004898499878477347 0.00007050884837001004 0.000052821888154530594 0.00007824939927097985 0.00008837771212394374
          0.00008237610747835467 0.0000668377543288079 0.000036304940873782554 0.0000409574692415704 0.000023408363973631552 0.000029478992262743642
          0.00009413122228252302 0.00286477755133116 0.0023427769867525317 0.0016939182231534011 0.0029208826276624356 0.0004169570632455155
          0.0004737895770011713 0.0003193698795365685 0.0001203281225352626 0.00012288494120615834 0.00006028529444279673 0.00012806101108864265
          0.00008466412755980812 0.00047348094052573897 0.0005199924635581055 0.0005001392097974677 0.0004393735512496222 0.0018089531984401552
          0.0014753233490918949 0.0019050301085719035 0.0011423350466311377 -0.004997705808423625 5.551115123125783e-17 -0.005314913180003322
          -1.6653345369377348e-16 0.00006197589820339244 0.00005258714596045877 0.004075305650748651 0.0000396213091734543 0.00009533444717535478
          0.00009764138028656166 0.00007239168804629159 0.00009130042841742902 0.0000565169356717965 0.00007125406413882596 0.00005799992865279657
          0.00005531289427634922 0.00007420558339898964 0.00006851606921687292 0.00007787957642302334 0.00006666531636334572 0.0003262844206713966
          0.0002853361700440593 0.0003399751412899721 0.00026519160614213444 0.003891626876391996 0.003280446840780049 0.002511107436848292
          0.003840573336633901 0.00010439174395054929 0.000129089769468127 0.0001244576110657758 0.00014007596471887762 0.0015058671989723882
          0.0007117418863260561 0.0005888406619057873 0.00118108797636704 0.00007309445290126781 0.00007403683939988248 0.00004219664299059955
          0.0000618363659369292 0.000557368193839447 0.0001843156343499519 0.0008410293540943581 0.0010681782801379436 0.049451604965527904
          0.0007503260324816519 0.00007839746110221979 0.00007772334751526833 0.00005073273532352207 0.0000794480540759479 0.00009950779030043488
          0.0000922880922173408 0.000053972693828591156 0.00007286613295248712 0.000042172064327661296 0.00006059696876409282 0.0007041512486518631
          0.000648385695178888 0.000513095251542417 0.00016052954734868674 0.00008986815973049955 0.00015618013478668757 0.00007140779767672578
          0.00008637735563643556 -0.01628911026477986 0.00003279166248504328 0.00007759415819580395 -0.027276788704724053 0.06027742987234619
          0.00007497963073227476 0.00022038462253459734 0.00018540658253846098 0.0002300075539035662 0.00013635208573564706 0.00010759182389336042
          0.00019090249772615864 0.00006190103066899821 0.00010435676821479722 0.0001085041813866372 0.00009833743789888771 0.00007808826981803296
          0.00010255262070357762 0.0001381301190238604 0.00014668691173785886 0.00011603252101632933 0.00019989336382369993 0.00020776618025503124
          0.0009774183846138484 0.00108212602777924 0.0008842764750436327 0.0010874057015708427 -0.0014801347662978248 0.00009154376484382665
          0.0013195439326224856 0.0010829171018909567 -0.00629093286913146 5.551115123125783e-17 -0.009565164751624333 0
          -0.007511578787572248 0.00007099714687813785 0.0034781419016265136 0.001360462569527321 0.0016678798828077407 0.002187427867210545
          0.00009485337502412872 0.000045848413861071524 0.00008994704245418594 0.0012935332026227653 0.001962803352133058 0.001251591538718455
          0.001154593188823494 0.0013603476707165774 0.00010809381889015368 0.00010898057531560923 0.00009442831631734094 0.00011793474798443837
          0.00022328850819131052 0.004537794696881869 0.0021139923404536187 0.0020160185587594914 0.0029193763691200136 -0.003600119162851495
          -3.3306690738754696e-16 -1.1102230246251565e-16 -0.003362022762520317 -0.004375841706233272 2.7755575615628914e-16 -0.007747476604921921
          0 0.00017201819104517568 0.0000928173842416058 0.00010202097993766701 0.00008729505902238532 0.00009779529123643549
          0.003379878281133508 0.000044544477654617776 0.00004247666019921437 0.00004073034306228962 0.00004425050407030895 0.0001097448428474257
          0.0002188832690064868 0.00006538815768786232 0.00008107694651326991 0.0000590065156999553 0.00008068691870799505 4.440892098500626e-16
          -0.01782640808057928 -0.013798333296545784 1.6653345369377348e-16 0.00005005175724498434 0.00007409027364269072 -0.028419840110281647
          -0.03955087713670391 -0.02873983211154013 0.0005771860116026151 0.005562499689732603 0.004019877071178679 0.0049854669549629915
          0.0028248255483068196 0.0001975430373734044 0.0002572709042150678 0.00016885476966543855 0.0002444412604586388 0.00006930544801098115
          0.00007720772720154478 0.00005830268001216776 1.1102230246251565e-16 0.00008021713556805032 0.00010474329246840108 0.00009312815607892544
          -0.0005703935559348006 0.00013993906494957908 -0.08215327171398967 -0.15166881862084258 0.00005544246745747827 0.00035951286209751077
          0.0003737032546649033 0.0003427427786539816 0.0003563227324168694 -0.012727759918464615 -0.027551357569031043 0.00086229419598155
          0.0005039866109879387 0.0015064068164915012 0.0016222371377477007 0.001450919632928871 0.0011660872132086553 0.00015006464802869157
          0.00015126470561782623 0.00017924580174011329 0.00011611896705021607 0.0000685297785793515 -0.001709508555651773 0.005964201804401159
          0.00004202928249441573 0.0001098076262544545 0.00013853117656853486 0.00009354297298541647 0.0001104768528703004 0.00006775777168088748
          0.0007846702653473425 0.0006637395506677857 0.0005680961318346722 0.0006932108699175821 0.00019889407672346593 0.0016430410488713076
          0.007194715904302318 0.01436690364057408 0.0000632687600499171 -0.02453234279924177 0.0004937632895544164 0.0011383102121165223
          0.0016663576929392132 0.0009881168400602824 0.0010529600666795425 0.00006209437518478467 0.00026502685107526736 0.0001857627095283032