<VTKFile type="UnstructuredGrid" version="1.0" byte_order="LittleEndian" header_type="UInt64">
  <UnstructuredGrid>
    <Piece NumberOfPoints="233" NumberOfCells="233">
      <PointData>
        <DataArray type="UInt64" Name="bulk_node_ids" format="ascii" RangeMin="30" RangeMax="12595">
          30 32 71 68 90 89
          95 97 127 129 170 169
          172 174 179 176 243 240
          287 289 291 293 383 385
          425 424 463 460 526 528
          529 531 603 619 621 644
          643 651 650 656 653 743
          740 755 757 786 783 1063
          1067 1066 1090 1098 1134 1151
          1173 1172 1193 1192 1207 1206
          1205 1209 1244 1324 1357 1005
          1362 1368 1401 1403 1413 1412
          1449 1451 1506 1542 49 1623
          1622 1656 1653 1659 1658 1711
          1750 1766 1763 1773 1772 1781
          1798 1851 1940 2037 2053 2074
          2113 2115 1107 1783 2142 1275
          2144 2029 2146 2019 1895 2298
          2300 2058 2339 2503 2505 2541
          2644 2713 2715 2720 707 2737
          2786 2860 2862 2921 2923 2965
          2682 2977 2501 3050 2447 3095
          3109 3108 3116 3236 3273 3365
          3366 3376 3477 497 3485 3482
          3526 3556 3558 3663 3815 3812
          3820 3822 3894 1841 2869 4410
          3973 2497 4513 4515 4567 4576
          4577 4607 4816 4815 4839 4841
          2971 4965 690 5088 5127 5125
          5212 1170 5384 5522 3199 5694
          5693 2604 5781 6019 6034 6051
          6050 1979 6167 6251 6333 6378
          6382 6511 4311 7210 2406 7456
          7457 7799 7801 8016 2660 8442
          5360 8464 8200 8677 8682 8684
          8948 8950 11026 11239 11272 2479
          11419 11546 11629 11452 9097 11806
          11917 11937 12066 12096 12276 12275
          1710 12378 7287 12552 12595
        </DataArray>
      </PointData>
      <CellData>
        <DataArray type="UInt64" Name="bulk_element_ids" format="ascii" RangeMin="15" RangeMax="24959">
          15 34 43 46 62 83
          85 88 120 143 145 194
          214 235 269 270 309 319
          330 334 337 384 392 409
          573 575 589 595 597 616
          627 638 648 657 657 657
          659 683 730 752 758 763
          787 792 814 850 876 928
          949 950 994 999 1020 1031
          1034 1039 1052 1089 1149 1182
          1213 1225 1239 1269 1271 1285
          1292 1297 1299 1373 1411 1445
          1562 1589 1670 1724 1729 1743
          1780 1816 1835 1836 1876 1905
          1913 1975 2011 2024 2095 2117
          2137 2164 2200 2210 2248 2250
          2256 2352 2357 2397 2431 2454
          2533 2673 2677 2679 2744 2971
          2998 3210 3251 3267 3318 3325
          3331 3366 3374 3392 3403 3617
          3640 3643 3769 3772 3815 3885
          3900 3934 4037 4061 4140 4241
          4327 4391 4416 4581 4594 4669
          4878 4990 5014 5035 5174 5175
          5284 5380 5454 5460 5636 6653
          6948 6959 7028 7385 7552 7555
          7876 8050 8570 8607 8616 8662
          8944 8947 8949 9431 11367 13089
          14187 14240 14424 15050 15174 15206
          15265 15402 15582 15685 15725 15892
          16131 16257 16353 16456 16628 17014
          17247 17376 17654 17728 17730 17827
          17939 18497 18672 18841 18858 18903
          19031 19111 19305 19372 19459 19823
          19827 19844 19848 19865 19871 20050
          20192 20307 20364 20489 20655 20765
          20957 21230 21320 21419 21798 21901
          22362 22458 22464 22625 22712 23153
          23607 23659 23975 24958 24959
        </DataArray>
      </CellData>
      <Points>
        <DataArray type="Float32" Name="Points" NumberOfComponents="3" format="ascii" RangeMin="7254732.548848785" RangeMax="7268221.110317933">
          4451194.5 5730450.5 186 4451271 5730537.5 185
          4453557.5 5733458 158 4453463 5733377.5 158
          4451984 5741325 116 4451920 5741422.5 116
          4451910.5 5732173 168 4451836.5 5732081 170
          4450710 5743499 110 4450757 5743610 110
          4453039 5733172.5 160 4452972.5 5733071 160
          4454968.5 5733607 152 4454996.5 5733709 151
          4454045 5737884 128 4453994 5737991 127
          4455580 5733887.5 148 4455513.5 5733805.5 149
          4450007 5744590 108 4450097 5744509 108
          4448417.5 5746958.5 102 4448489 5746860.5 103
          4450699.5 5729954 185 4450819 5729938.5 188
          4450578.5 5743925.5 109 4450459.5 5743956 109
          4455753 5734652 144 4455747.5 5734530 144
          4453872.5 5738187 127 4453802 5738276 126
          4451856.5 5741520.5 116 4451790 5741626 116
          4450130.5 5744412 108 4449916.5 5744670.5 107
          4449851 5744760.5 107 4451720.5 5731589.5 172
          4451764 5731689.5 171 4453651.5 5733538.5 159
          4453772.5 5733551.5 157 4452485.5 5740220.5 120
          4452542.5 5740110 120 4453535.5 5738496.5 125
          4453602.5 5738396.5 127 4452731 5732798 163
          4452818.5 5732883.5 161 4455742 5734408 145
          4455745.5 5734292.5 146 4453141.5 5733219 159
          4449181 5745896 111 4449063 5745924.5 106
          4451723.5 5741732 115 4453894 5733565 156
          4453702 5738336.5 127 4451677 5731490 172
          4450585 5729547.5 191 4450601.5 5729654 190
          4455784 5735394.5 141 4455773 5735285 141
          4449738 5745238 109 4449628.5 5745250 108
          4449711.5 5745141.5 108 4449519 5745262 106
          4451743 5731784 171 4450164 5744314.5 108
          4455794.5 5735504 140 4455690 5735547 140
          4450698 5743895 110 4455820 5734741.5 143
          4454379.5 5737591.5 129 4454321 5737701.5 129
          4449387.5 5745590 108 4449459 5745492.5 106
          4452353.5 5732543.5 164 4452273.5 5732452 165
          4455024.5 5733811 150 4450761 5743271.5 110
          4450846 5743198.5 111 4447930 5748067 101
          4447958.5 5747979.5 100 4455292 5736725.5 138
          4455245 5736832.5 134 4449735 5744947.5 107
          4449684.5 5745045 107 4454014.5 5733583 155
          4450931 5743125.5 111 4451560 5731047 174
          4451568 5730922.5 175 4448631 5746564.5 103
          4448643.5 5746452.5 104 4451619.5 5731386 173
          4455390.5 5733818.5 149 4454135.5 5733601 155
          4452429 5740330 120 4451562 5731282 173
          4447901 5748155 101 4452193 5732360 166
          4448134 5747678 100 4448115.5 5747785 100
          4448152 5747570.5 101 4454412.5 5737481.5 130
          4455339 5736619 136 4455349 5736516 138
          4452175 5741027.5 117 4452206.5 5740907 118
          4451561 5731164.5 174 4451593.5 5741945.5 114
          4451528.5 5742052.5 114 4455749 5734177.5 147
          4455697.5 5734073.5 147 4447730 5748442 101
          4447820.5 5748358.5 101 4454885 5733530 152
          4454802 5733453 152 4450804.5 5743720.5 110
          4448595.5 5746663.5 104 4455461.5 5735791 138
          4455523 5735690.5 138 4454262.5 5737812 129
          4454153.5 5737848 128 4451985 5732265.5 167
          4447639 5748525.5 100 4450576.5 5729429.5 202
          4450568.5 5729311.5 194 4455146 5733821.5 150
          4455267.5 5733831.5 149 4454938 5737033.5 134
          4454833 5737096.5 135 4452335.5 5740558.5 119
          4452372.5 5740439.5 119 4448138.5 5747465.5 101
          4448874.5 5746052 105 4448804 5746150.5 104
          4454584 5733426 154 4454693 5733439.5 153
          4452299 5740678 119 4448125 5747360 101
          4453943.5 5738098 127 4455426 5735871.5 138
          4455359.5 5736413 138 4452089 5732312.5 167
          4454446 5737371.5 130 4454526.5 5737276.5 131
          4452623.5 5739898 121 4452647.5 5739796.5 121
          4451658.5 5741838.5 114 4453114 5739107.5 124
          4453126.5 5739004.5 123 4448037 5747882 100
          4453223.5 5738832 124 4453308 5738762.5 124
          4451576 5730798.5 176 4452906.5 5732969.5 161
          4454359 5733524.5 154 4454471.5 5733475.5 154
          4448945 5745953 105 4455793 5735172.5 141
          4455812.5 5735060 141 4453138.5 5738901.5 124
          4453119.5 5739330.5 123 4453117 5739219 124
          4455850 5734946 142 4448730 5746245.5 104
          4448656 5746340 104 4451391 5730555.5 184
          4448196.5 5747258 101 4448268.5 5747155.5 101
          4454247 5733563 154 4452897 5739425 122
          4452801 5739491 122 4450751 5743807.5 110
          4452705.5 5739557 122 4453008 5739377.5 123
          4450618 5729761 188 4450658.5 5729857.5 186
          4452676.5 5739676.5 121 4451175 5742559.5 113
          4451205.5 5742670 112 4450735.5 5743385 110
          4451235.5 5742780.5 112 4455374 5736294 137
          4455389 5736175 137 4451150 5742868 112
          4449785.5 5744850 107 4447861 5748257 100
          4455144.5 5736901.5 134 4451004.5 5730025 193
          4450939 5729923 194 4451510.5 5730574 185
          4451543.5 5730686 184 4455043.5 5736971 133
          4450221 5744212 108 4453353.5 5733321.5 158
          4451118 5730364 188 4450997.5 5743040.5 111
          4452448 5732609.5 164 4452542.5 5732675 164
          4455390 5736063.5 139 4447525 5748549.5 97
          4447411 5748573 100 4455391 5735952.5 137
          4452252.5 5740792.5 118 4447180.5 5748792.5 100
          4447212 5748680.5 100 4455585 5735590.5 139
          4451722.5 5731878.5 170 4451779.5 5731979.5 170
          4451463.5 5742159 113 4451398.5 5742266 113
          4451064.5 5742956 111 4451333.5 5742372.5 113
          4451093.5 5730245.5 189 4451069.5 5730127.5 191
          4453244 5733266 159 4453468.5 5738596.5 125
          4451254 5742466 113 4455887 5734831.5 142
          4452064 5741236.5 117 4453388.5 5738679.5 124
          4449248.5 5745791.5 108 4452144 5741148 117
          4452600 5739999.5 120 4452637 5732736.5 164
          4449316 5745687 107 4449489 5745377.5 107
          4448343 5747057 102 4447311.5 5748627 100
          4450368.5 5744032.5 109 4450277.5 5744109 109
          4454720 5737139 134 4448560 5746763 104
          4450566 5729189 193 4455646 5733969.5 147
          4454607.5 5737182 140
          <InformationKey name="L2_NORM_RANGE" location="vtkDataArray" length="2">
            <Value index="0">
              7254732.5488
            </Value>
            <Value index="1">
              7268221.1103
            </Value>
          </InformationKey>
          <InformationKey name="L2_NORM_FINITE_RANGE" location="vtkDataArray" length="2">
            <Value index="0">
              7254732.5488
            </Value>
            <Value index="1">
              7268221.1103
            </Value>
          </InformationKey>
        </DataArray>
      </Points>
      <Cells>
        <DataArray type="Int64" Name="connectivity" format="ascii" RangeMin="0" RangeMax="232">
          0 1 2 3 4 5
          6 7 8 9 10 11
          12 13 14 15 16 17
          18 19 20 21 22 23
          24 25 26 27 28 29
          30 31 19 32 33 34
          35 36 37 38 39 40
          41 42 43 44 45 46
          10 47 48 49 31 50
          38 51 5 30 42 52
          53 35 54 55 56 57
          58 59 59 60 60 58
          59 61 62 36 32 63
          64 65 66 24 26 67
          68 69 70 71 72 73
          13 74 75 76 77 78
          79 80 81 82 51 83
          37 2 76 84 85 86
          87 88 53 89 90 17
          83 91 92 39 82 60
          89 93 94 77 73 95
          96 97 98 96 68 99
          100 101 102 103 93 104
          105 106 107 108 109 110
          111 112 9 113 114 87
          115 116 117 118 119 6
          109 120 56 64 121 122
          54 121 123 124 125 126
          127 128 98 129 130 131
          132 133 52 29 134 127
          129 135 136 28 100 79
          128 92 137 115 138 101
          95 139 140 141 142 143
          50 144 145 146 45 27
          147 97 148 149 86 150
          11 151 152 153 130 154
          78 147 155 156 117 69
          157 148 158 159 133 112
          14 118 160 156 161 162
          33 18 1 163 164 165
          91 166 167 168 113 169
          153 132 124 90 168 170
          158 171 172 173 174 143
          140 99 88 162 175 176
          144 105 8 177 178 176
          179 180 181 178 182 34
          145 159 183 94 184 80
          185 186 187 188 163 187
          189 125 63 190 191 3
          0 192 84 193 194 195
          169 66 196 180 197 198
          171 167 137 199 103 200
          201 202 12 111 65 203
          204 205 206 106 15 136
          207 206 193 208 209 207
          210 211 204 62 135 164
          161 131 47 212 174 170
          41 213 157 146 214 209
          200 134 194 72 184 189
          215 67 4 216 138 179
          149 217 75 177 155 57
          218 48 219 102 220 40
          221 43 160 215 175 214
          70 222 222 218 223 61
          107 46 165 224 198 225
          81 182 205 7 196 199
          71 223 142 220 221 195
          119 139 192 210 216 219
          150 188 104 85 186 23
          226 227 172 55 116 203
          228 126 173 22 123 74
          208 181 21 229 212 191
          197 120 213 217 183 110
          151 44 190 227 25 226
          185 211 122 230 231 108
          154 49 166 152 20 224
          16 231 225 202 114 229
          232 228 232 141
        </DataArray>
        <DataArray type="Int64" Name="offsets" format="ascii" RangeMin="2" RangeMax="466">
          2 4 6 8 10 12
          14 16 18 20 22 24
          26 28 30 32 34 36
          38 40 42 44 46 48
          50 52 54 56 58 60
          62 64 66 68 70 72
          74 76 78 80 82 84
          86 88 90 92 94 96
          98 100 102 104 106 108
          110 112 114 116 118 120
          122 124 126 128 130 132
          134 136 138 140 142 144
          146 148 150 152 154 156
          158 160 162 164 166 168
          170 172 174 176 178 180
          182 184 186 188 190 192
          194 196 198 200 202 204
          206 208 210 212 214 216
          218 220 222 224 226 228
          230 232 234 236 238 240
          242 244 246 248 250 252
          254 256 258 260 262 264
          266 268 270 272 274 276
          278 280 282 284 286 288
          290 292 294 296 298 300
          302 304 306 308 310 312
          314 316 318 320 322 324
          326 328 330 332 334 336
          338 340 342 344 346 348
          350 352 354 356 358 360
          362 364 366 368 370 372
          374 376 378 380 382 384
          386 388 390 392 394 396
          398 400 402 404 406 408
          410 412 414 416 418 420
          422 424 426 428 430 432
          434 436 438 440 442 444
          446 448 450 452 454 456
          458 460 462 464 466
        </DataArray>
        <DataArray type="UInt8" Name="types" format="ascii" RangeMin="3" RangeMax="3">
          3 3 3 3 3 3
          3 3 3 3 3 3
          3 3 3 3 3 3
          3 3 3 3 3 3
          3 3 3 3 3 3
          3 3 3 3 3 3
          3 3 3 3 3 3
          3 3 3 3 3 3
          3 3 3 3 3 3
          3 3 3 3 3 3
          3 3 3 3 3 3
          3 3 3 3 3 3
          3 3 3 3 3 3
          3 3 3 3 3 3
          3 3 3 3 3 3
          3 3 3 3 3 3
          3 3 3 3 3 3
          3 3 3 3 3 3
          3 3 3 3 3 3
          3 3 3 3 3 3
          3 3 3 3 3 3
          3 3 3 3 3 3
          3 3 3 3 3 3
          3 3 3 3 3 3
          3 3 3 3 3 3
          3 3 3 3 3 3
          3 3 3 3 3 3
          3 3 3 3 3 3
          3 3 3 3 3 3
          3 3 3 3 3 3
          3 3 3 3 3 3
          3 3 3 3 3 3
          3 3 3 3 3 3
          3 3 3 3 3 3
          3 3 3 3 3 3
          3 3 3 3 3 3
          3 3 3 3 3 3
          3 3 3 3 3 3
          3 3 3 3 3
        </DataArray>
      </Cells>
    </Piece>
  </UnstructuredGrid>
</VTKFile>
