<VTKFile type="UnstructuredGrid" version="1.0" byte_order="LittleEndian" header_type="UInt64">
  <UnstructuredGrid>
    <Piece NumberOfPoints="231" NumberOfCells="231">
      <PointData>
      </PointData>
      <CellData Scalars="MaterialIDs">
        <DataArray type="Int32" Name="submesh_id" format="ascii" RangeMin="4" RangeMax="4">
          4 4 4 4 4 4
          4 4 4 4 4 4
          4 4 4 4 4 4
          4 4 4 4 4 4
          4 4 4 4 4 4
          4 4 4 4 4 4
          4 4 4 4 4 4
          4 4 4 4 4 4
          4 4 4 4 4 4
          4 4 4 4 4 4
          4 4 4 4 4 4
          4 4 4 4 4 4
          4 4 4 4 4 4
          4 4 4 4 4 4
          4 4 4 4 4 4
          4 4 4 4 4 4
          4 4 4 4 4 4
          4 4 4 4 4 4
          4 4 4 4 4 4
          4 4 4 4 4 4
          4 4 4 4 4 4
          4 4 4 4 4 4
          4 4 4 4 4 4
          4 4 4 4 4 4
          4 4 4 4 4 4
          4 4 4 4 4 4
          4 4 4 4 4 4
          4 4 4 4 4 4
          4 4 4 4 4 4
          4 4 4 4 4 4
          4 4 4 4 4 4
          4 4 4 4 4 4
          4 4 4 4 4 4
          4 4 4 4 4 4
          4 4 4 4 4 4
          4 4 4 4 4 4
          4 4 4 4 4 4
          4 4 4 4 4 4
          4 4 4
        </DataArray>
        <DataArray type="Float64" Name="recharge" format="ascii" RangeMin="156" RangeMax="268">
          177 177.777123370272 156 171.718558877619 156 174.368927599175
          190 162 204 167.860095104634 171 196
          178.761043697788 162 181 164 169 162
          162 169 171 184 201 165.241844057337
          174.999135290861 182.914110362728 162 177 164 204
          185 177 175.12355693971 183 181 184
          180.3836842193 190 190 166 168 168
          168 168 162 164 169 171
          184.953659562412 169 171 166.615097003239 164 156
          156 162 190 164 196 165.43475992844
          162 195.386430864442 168 183.455304507306 164 166
          177 172 190 177 177 168
          166 268 162 164 186.122488941869 166
          166 196 156 156 183 172.900475758463
          172 162 171 157 169 195
          196.645064632843 201 183 177 162.016643088138 160
          178 176 176 196 162 181
          170.489598603636 164 177 164 156 171
          171 172 171 166 162 183
          166 162 171 164 166 171
          171 166 164 166 172 201
          160 156 164 195.049809351946 171 181
          169 164 178 190 172 183
          157.025589272743 160 184 162 201 164
          201 162 166 162 184 164
          156 184.717587507286 177 173 174.469833288828 172
          183 162 160 160 162 172
          168 160 164 171 156.561990244629 178
          164 169 169 162.649709129957 171.25985563076 177
          177 172 160 201 162 196
          183 168 168 164 177 177.919129453406
          164 190 166 166 177 201
          168 162 172 171 164 169
          166 201 196 177 188.873806332167 184
          164 198.831008914382 168 204 190 196
          171 204 164 169 171 184.809079699517
          204.007005330383 187.371250787828 173 175.782905618625 204 160.018690287234
          171 164 268 164 171 173
          166 156.024939904415 156
        </DataArray>
        <DataArray type="UInt64" Name="bulk_element_ids" format="ascii" RangeMin="1335" RangeMax="24289">
          1335 1337 1352 1368 1423 1432
          1442 1464 1512 1535 1543 1561
          1571 1607 1611 1616 1629 1649
          1653 1676 1693 1697 1753 1762
          1773 1808 1819 1835 1853 1890
          1912 1923 1927 1933 1940 1944
          1948 1961 1962 1979 1992 1992
          1992 1994 2006 2021 2029 2032
          2034 2036 2090 2093 2105 2106
          2133 2150 2153 2162 2180 2192
          2248 2271 2280 2310 2324 2342
          2347 2392 2396 2433 2445 2467
          2577 2583 2596 2641 2651 2721
          2727 2748 2857 2888 2967 2998
          3006 3046 3081 3115 3200 3209
          3211 3213 3231 3253 3293 3376
          3388 3433 3434 3468 3484 3512
          3523 3530 3546 3550 3575 3587
          3631 3819 3959 4013 4028 4219
          4283 4374 4391 4425 4438 4541
          4680 4791 4796 4856 5002 5062
          5087 5129 5162 5359 5361 5387
          5618 5654 5771 5820 5848 5919
          6172 6313 6356 6507 6595 7150
          7390 7444 7631 7639 7900 8658
          8994 9705 9843 9916 10244 10313
          11748 12560 12685 12711 12921 13050
          13184 13297 13621 13905 14018 14564
          14841 15094 15409 16335 16423 16674
          16855 17040 17111 17129 17264 17340
          17420 17592 17594 17789 17949 18026
          18266 18367 18482 18484 18496 18639
          19019 19045 19191 19369 19381 19487
          19526 19542 19550 19558 19559 19636
          19727 19807 19882 20021 20233 20263
          20265 20317 20375 20437 20488 20644
          20725 20779 21144 21165 21222 21495
          21498 21594 21862 22133 22307 22689
          23010 24288 24289
        </DataArray>
        <DataArray type="Int32" Name="MaterialIDs" format="ascii" RangeMin="1" RangeMax="7">
          1 1 1 1 1 1
          1 1 1 1 1 1
          1 1 1 1 1 1
          1 1 1 1 1 1
          1 1 1 1 1 1
          1 1 1 1 1 1
          1 1 1 1 1 1
          1 1 1 1 1 1
          1 1 1 1 1 1
          1 1 1 1 1 1
          1 1 1 1 1 1
          1 1 1 1 1 1
          1 1 1 1 1 1
          1 1 1 1 1 1
          1 1 1 1 1 1
          1 5 1 1 1 1
          1 1 1 1 1 1
          1 1 1 1 1 1
          1 1 1 1 1 1
          1 1 1 1 1 1
          1 1 1 1 1 1
          1 1 1 1 1 1
          1 1 1 1 1 1
          1 1 7 1 1 1
          1 1 1 1 1 1
          1 7 1 1 1 1
          1 1 1 1 1 1
          1 1 1 1 1 1
          1 1 1 1 1 1
          1 1 1 1 1 1
          1 1 1 1 1 1
          1 1 1 1 1 1
          1 1 1 1 1 1
          1 1 1 1 1 7
          1 1 1 1 1 1
          1 1 1 1 1 7
          1 1 1 1 1 1
          1 1 1 1 1 1
          1 2 1
        </DataArray>
        <DataArray type="Float64" Name="line_submesh_id" format="ascii" RangeMin="4" RangeMax="4">
          4 4 4 4 4 4
          4 4 4 4 4 4
          4 4 4 4 4 4
          4 4 4 4 4 4
          4 4 4 4 4 4
          4 4 4 4 4 4
          4 4 4 4 4 4
          4 4 4 4 4 4
          4 4 4 4 4 4
          4 4 4 4 4 4
          4 4 4 4 4 4
          4 4 4 4 4 4
          4 4 4 4 4 4
          4 4 4 4 4 4
          4 4 4 4 4 4
          4 4 4 4 4 4
          4 4 4 4 4 4
          4 4 4 4 4 4
          4 4 4 4 4 4
          4 4 4 4 4 4
          4 4 4 4 4 4
          4 4 4 4 4 4
          4 4 4 4 4 4
          4 4 4 4 4 4
          4 4 4 4 4 4
          4 4 4 4 4 4
          4 4 4 4 4 4
          4 4 4 4 4 4
          4 4 4 4 4 4
          4 4 4 4 4 4
          4 4 4 4 4 4
          4 4 4 4 4 4
          4 4 4 4 4 4
          4 4 4 4 4 4
          4 4 4 4 4 4
          4 4 4 4 4 4
          4 4 4 4 4 4
          4 4 4 4 4 4
          4 4 4
        </DataArray>
      </CellData>
      <Points>
        <DataArray type="Float32" Name="Points" NumberOfComponents="3" format="ascii" RangeMin="7254732.548848785" RangeMax="7268221.110317933">
          4451194.5 5730450.5 186 4451271 5730537.5 185
          4451619.5 5731386 173 4451562 5731282 173
          4454153.5 5737848 128 4454262.5 5737812 129
          4451984 5741325 116 4451920 5741422.5 116
          4454045 5737884 128 4453994 5737991 127
          4454996.5 5733709 151 4454968.5 5733607 152
          4451398.5 5742266 113 4451463.5 5742159 113
          4453138.5 5738901.5 124 4453126.5 5739004.5 123
          4450699.5 5729954 185 4450819 5729938.5 188
          4450578.5 5743925.5 109 4450459.5 5743956 109
          4452429 5740330 120 4452485.5 5740220.5 120
          4451677 5731490 172 4455024.5 5733811 150
          4453872.5 5738187 127 4453802 5738276 126
          4451856.5 5741520.5 116 4451790 5741626 116
          4455793 5735172.5 141 4455812.5 5735060 141
          4450130.5 5744412 108 4450164 5744314.5 108
          4455794.5 5735504 140 4455784 5735394.5 141
          4455391 5735952.5 137 4455426 5735871.5 138
          4449916.5 5744670.5 107 4449851 5744760.5 107
          4452252.5 5740792.5 118 4452299 5740678 119
          4453651.5 5733538.5 159 4453772.5 5733551.5 157
          4452731 5732798 163 4452818.5 5732883.5 161
          4448560 5746763 104 4448489 5746860.5 103
          4448730 5746245.5 104 4448804 5746150.5 104
          4455146 5733821.5 150 4453308 5738762.5 124
          4453388.5 5738679.5 124 4451561 5731164.5 174
          4451560 5731047 174 4448037 5747882 100
          4448115.5 5747785 100 4450585 5729547.5 191
          4450601.5 5729654 190 4453039 5733172.5 160
          4452972.5 5733071 160 4451118 5730364 188
          4451093.5 5730245.5 189 4449181 5745896 111
          4449063 5745924.5 106 4455646 5733969.5 147
          4455580 5733887.5 148 4451723.5 5741732 115
          4453894 5733565 156 4451205.5 5742670 112
          4451175 5742559.5 113 4451254 5742466 113
          4450804.5 5743720.5 110 4450757 5743610 110
          4449738 5745238 109 4449628.5 5745250 108
          4449711.5 5745141.5 108 4449519 5745262 106
          4455461.5 5735791 138 4448417.5 5746958.5 102
          4450097 5744509 108 4450007 5744590 108
          4452335.5 5740558.5 119 4453141.5 5733219 159
          4450221 5744212 108 4450277.5 5744109 109
          4452542.5 5740110 120 4452600 5739999.5 120
          4450698 5743895 110 4455753 5734652 144
          4455820 5734741.5 143 4454379.5 5737591.5 129
          4454321 5737701.5 129 4453468.5 5738596.5 125
          4451333.5 5742372.5 113 4455887 5734831.5 142
          4451720.5 5731589.5 172 4453114 5739107.5 124
          4453223.5 5738832 124 4451910.5 5732173 168
          4451836.5 5732081 170 4449735 5744947.5 107
          4449684.5 5745045 107 4454014.5 5733583 155
          4448196.5 5747258 101 4448268.5 5747155.5 101
          4450751 5743807.5 110 4451004.5 5730025 193
          4451069.5 5730127.5 191 4454135.5 5733601 155
          4451510.5 5730574 185 4451391 5730555.5 184
          4450939 5729923 194 4450761 5743271.5 110
          4450846 5743198.5 111 4450576.5 5729429.5 202
          4450568.5 5729311.5 194 4448134 5747678 100
          4451593.5 5741945.5 114 4451528.5 5742052.5 114
          4450735.5 5743385 110 4450997.5 5743040.5 111
          4451064.5 5742956 111 4451764 5731689.5 171
          4454412.5 5737481.5 130 4454446 5737371.5 130
          4454526.5 5737276.5 131 4455267.5 5733831.5 149
          4447730 5748442 101 4447639 5748525.5 100
          4454885 5733530 152 4455690 5735547 140
          4452175 5741027.5 117 4452206.5 5740907 118
          4454938 5737033.5 134 4454833 5737096.5 135
          4452089 5732312.5 167 4451985 5732265.5 167
          4452193 5732360 166 4452353.5 5732543.5 164
          4452273.5 5732452 165 4455749 5734177.5 147
          4455697.5 5734073.5 147 4453943.5 5738098 127
          4455359.5 5736413 138 4455349 5736516 138
          4453117 5739219 124 4448945 5745953 105
          4448874.5 5746052 105 4451779.5 5731979.5 170
          4451722.5 5731878.5 170 4453535.5 5738496.5 125
          4451658.5 5741838.5 114 4449785.5 5744850 107
          4447958.5 5747979.5 100 4451568 5730922.5 175
          4455742 5734408 145 4455747.5 5734530 144
          4452064 5741236.5 117 4452144 5741148 117
          4452897 5739425 122 4452801 5739491 122
          4454359 5733524.5 154 4454471.5 5733475.5 154
          4450931 5743125.5 111 4455390 5736063.5 139
          4455513.5 5733805.5 149 4455390.5 5733818.5 149
          4450710 5743499 110 4453602.5 5738396.5 127
          4452676.5 5739676.5 121 4452647.5 5739796.5 121
          4455850 5734946 142 4448656 5746340 104
          4452372.5 5740439.5 119 4452623.5 5739898 121
          4454693 5733439.5 153 4454584 5733426 154
          4452637 5732736.5 164 4452542.5 5732675 164
          4455144.5 5736901.5 134 4455245 5736832.5 134
          4447901 5748155 101 4447930 5748067 101
          4452705.5 5739557 122 4447861 5748257 100
          4453119.5 5739330.5 123 4451235.5 5742780.5 112
          4454247 5733563 154 4455043.5 5736971 133
          4453353.5 5733321.5 158 4453463 5733377.5 158
          4455585 5735590.5 139 4448138.5 5747465.5 101
          4448125 5747360 101 4452448 5732609.5 164
          4455523 5735690.5 138 4455389 5736175 137
          4453557.5 5733458 158 4448343 5747057 102
          4453244 5733266 159 4451543.5 5730686 184
          4447311.5 5748627 100 4447411 5748573 100
          4453008 5739377.5 123 4453702 5738336.5 127
          4455292 5736725.5 138 4455339 5736619 136
          4454802 5733453 152 4449489 5745377.5 107
          4449459 5745492.5 106 4454720 5737139 134
          4448152 5747570.5 101 4450368.5 5744032.5 109
          4455773 5735285 141 4449248.5 5745791.5 108
          4451576 5730798.5 176 4455374 5736294 137
          4451743 5731784 171 4449387.5 5745590 107
          4449316 5745687 107 4455745.5 5734292.5 146
          4447820.5 5748358.5 101 4451150 5742868 112
          4448631 5746564.5 103 4448643.5 5746452.5 104
          4448595.5 5746663.5 104 4452906.5 5732969.5 161
          4450658.5 5729857.5 186 4450618 5729761 188
          4447525 5748549.5 97 4450566 5729189 193
          4454607.5 5737182 140
          <InformationKey name="L2_NORM_RANGE" location="vtkDataArray" length="2">
            <Value index="0">
              7254732.5488
            </Value>
            <Value index="1">
              7268221.1103
            </Value>
          </InformationKey>
          <InformationKey name="L2_NORM_FINITE_RANGE" location="vtkDataArray" length="2">
            <Value index="0">
              7254732.5488
            </Value>
            <Value index="1">
              7268221.1103
            </Value>
          </InformationKey>
        </DataArray>
      </Points>
      <Cells>
        <DataArray type="Int64" Name="connectivity" format="ascii" RangeMin="0" RangeMax="230">
          0 1 2 3 4 5
          6 7 8 9 10 11
          12 13 14 15 16 17
          18 19 20 21 2 22
          23 10 24 25 26 27
          28 29 30 31 32 33
          34 35 36 37 38 39
          40 41 42 43 44 45
          46 47 48 23 49 50
          51 52 53 54 55 56
          57 58 59 60 61 62
          63 64 27 65 41 66
          7 26 67 68 68 69
          70 71 72 73 73 74
          74 72 73 75 35 76
          77 45 78 79 80 39
          57 81 82 83 84 85
          86 18 87 88 4 8
          89 90 50 91 69 92
          93 88 22 94 95 15
          49 96 97 98 99 100
          66 101 102 103 104 70
          105 106 101 107 92 12
          108 109 105 110 100 74
          111 112 113 114 96 14
          115 54 116 117 118 111
          119 120 94 121 122 89
          123 124 48 125 126 127
          11 128 32 129 130 131
          132 133 30 78 134 135
          136 134 137 138 139 140
          109 1 24 141 142 143
          144 95 145 62 146 145
          147 148 91 149 65 150
          99 151 152 53 52 153
          154 155 90 5 156 157
          158 159 160 161 21 84
          162 119 163 34 164 165
          166 118 167 149 168 169
          170 29 46 171 80 172
          173 85 166 71 155 87
          112 162 174 175 176 177
          178 179 123 122 180 181
          97 135 159 182 150 116
          79 36 183 180 184 144
          185 67 107 186 125 165
          187 132 187 178 188 189
          190 129 42 176 191 192
          193 177 194 76 104 86
          163 195 40 196 197 103
          9 141 81 198 108 199
          200 201 202 158 175 161
          140 63 167 203 204 179
          205 143 203 25 128 206
          207 208 204 205 102 192
          173 169 209 133 202 184
          115 210 211 19 31 82
          28 212 213 61 106 60
          153 214 160 186 142 215
          137 193 33 212 216 121
          164 64 217 218 218 213
          181 152 59 0 139 219
          183 220 185 221 222 223
          223 171 51 3 138 136
          208 217 194 190 174 206
          172 20 154 219 151 37
          224 44 225 43 98 147
          199 214 221 120 196 189
          210 191 225 58 75 207
          226 16 117 13 216 148
          168 182 227 56 77 197
          83 211 38 131 188 198
          55 113 110 17 228 201
          146 47 226 227 195 215
          6 156 93 170 229 114
          126 220 157 130 228 127
          222 224 230 209 230 124
        </DataArray>
        <DataArray type="Int64" Name="offsets" format="ascii" RangeMin="2" RangeMax="462">
          2 4 6 8 10 12
          14 16 18 20 22 24
          26 28 30 32 34 36
          38 40 42 44 46 48
          50 52 54 56 58 60
          62 64 66 68 70 72
          74 76 78 80 82 84
          86 88 90 92 94 96
          98 100 102 104 106 108
          110 112 114 116 118 120
          122 124 126 128 130 132
          134 136 138 140 142 144
          146 148 150 152 154 156
          158 160 162 164 166 168
          170 172 174 176 178 180
          182 184 186 188 190 192
          194 196 198 200 202 204
          206 208 210 212 214 216
          218 220 222 224 226 228
          230 232 234 236 238 240
          242 244 246 248 250 252
          254 256 258 260 262 264
          266 268 270 272 274 276
          278 280 282 284 286 288
          290 292 294 296 298 300
          302 304 306 308 310 312
          314 316 318 320 322 324
          326 328 330 332 334 336
          338 340 342 344 346 348
          350 352 354 356 358 360
          362 364 366 368 370 372
          374 376 378 380 382 384
          386 388 390 392 394 396
          398 400 402 404 406 408
          410 412 414 416 418 420
          422 424 426 428 430 432
          434 436 438 440 442 444
          446 448 450 452 454 456
          458 460 462
        </DataArray>
        <DataArray type="UInt8" Name="types" format="ascii" RangeMin="3" RangeMax="3">
          3 3 3 3 3 3
          3 3 3 3 3 3
          3 3 3 3 3 3
          3 3 3 3 3 3
          3 3 3 3 3 3
          3 3 3 3 3 3
          3 3 3 3 3 3
          3 3 3 3 3 3
          3 3 3 3 3 3
          3 3 3 3 3 3
          3 3 3 3 3 3
          3 3 3 3 3 3
          3 3 3 3 3 3
          3 3 3 3 3 3
          3 3 3 3 3 3
          3 3 3 3 3 3
          3 3 3 3 3 3
          3 3 3 3 3 3
          3 3 3 3 3 3
          3 3 3 3 3 3
          3 3 3 3 3 3
          3 3 3 3 3 3
          3 3 3 3 3 3
          3 3 3 3 3 3
          3 3 3 3 3 3
          3 3 3 3 3 3
          3 3 3 3 3 3
          3 3 3 3 3 3
          3 3 3 3 3 3
          3 3 3 3 3 3
          3 3 3 3 3 3
          3 3 3 3 3 3
          3 3 3 3 3 3
          3 3 3 3 3 3
          3 3 3 3 3 3
          3 3 3 3 3 3
          3 3 3 3 3 3
          3 3 3 3 3 3
          3 3 3
        </DataArray>
      </Cells>
    </Piece>
  </UnstructuredGrid>
</VTKFile>
