<VTKFile type="UnstructuredGrid" version="1.0" byte_order="LittleEndian" header_type="UInt64">
  <UnstructuredGrid>
    <Piece NumberOfPoints="12167" NumberOfCells="23876">
      <PointData Scalars="bulk_node_ids">
        <DataArray type="UInt64" Name="bulk_node_ids" format="ascii" RangeMin="0" RangeMax="12653">
          2 1 0 3 6 5
          4 7 10 9 8 11
          14 13 12 15 18 17
          16 20 19 23 22 21
          24 27 26 25 28 31
          30 29 32 35 34 33
          36 39 38 37 40 43
          42 41 44 47 46 45
          48 51 50 49 52 55
          54 53 56 59 58 57
          60 63 62 61 64 67
          66 65 70 69 68 71
          74 73 72 75 78 77
          76 79 86 85 84 87
          90 89 88 91 94 93
          92 97 96 95 98 101
          100 99 102 105 104 103
          106 109 108 107 110 113
          112 111 114 117 116 115
          118 125 124 123 126 129
          128 127 130 133 132 131
          134 137 136 135 138 141
          140 139 142 145 144 143
          146 149 148 147 150 153
          152 151 154 155 158 157
          156 159 166 165 164 167
          170 169 168 171 174 173
          172 175 178 177 176 179
          182 181 180 183 186 185
          184 187 190 189 188 191
          194 193 192 197 196 195
          198 201 200 199 202 205
          204 203 206 209 208 207
          210 213 212 211 214 217
          216 215 218 219 222 221
          220 223 226 225 224 227
          230 229 228 231 234 233
          232 235 238 237 236 239
          242 241 240 243 246 245
          244 247 250 249 248 251
          254 253 252 255 256 259
          258 257 260 263 262 261
          264 267 266 265 270 269
          268 271 274 273 272 275
          278 277 276 279 282 281
          280 283 286 285 284 289
          288 287 290 293 292 291
          294 297 296 295 298 301
          300 299 302 305 304 303
          306 307 310 309 308 311
          312 315 314 313 316 317
          320 319 318 321 324 323
          322 325 328 327 326 329
          336 335 334 337 340 339
          338 341 344 343 342 345
          348 347 346 349 352 351
          350 355 354 353 356 357
          360 359 358 361 362 365
          364 363 82 367 366 368
          369 372 371 370 373 376
          375 374 377 380 379 378
          381 384 383 382 385 388
          387 386 389 392 391 390
          393 396 395 394 397 400
          399 398 401 406 409 408
          407 410 413 412 411 414
          417 416 415 418 421 420
          419 422 425 424 423 426
          427 430 429 428 431 434
          433 432 435 438 437 436
          439 442 441 440 443 446
          445 444 449 448 447 450
          451 454 453 452 455 458
          457 456 459 462 461 460
          463 466 465 464 467 470
          469 468 471 474 473 472
          475 478 477 476 479 482
          481 480 483 486 485 484
          487 490 489 488 491 494
          493 492 495 498 497 496
          499 501 500 502 505 504
          503 506 509 508 507 510
          513 512 511 514 515 522
          521 520 523 527 526 525
          528 531 530 529 534 533
          532 535 538 537 536 539
          542 541 540 543 545 544
          548 547 546 549 552 551
          550 553 556 555 554 557
          560 559 558 561 564 563
          562 565 570 573 572 571
          574 577 576 575 578 581
          580 579 582 585 584 583
          586 587 588 595 594 593
          596 599 598 597 600 603
          602 604 605 608 607 606
          609 612 611 610 613 616
          615 614 617 620 619 618
          621 628 627 626 629 632
          631 630 633 636 635 634
          637 640 639 638 641 644
          643 642 645 647 646 648
          651 650 649 652 655 654
          653 656 659 658 657 660
          662 661 663 666 665 664
          667 670 669 668 671 674
          673 672 675 679 678 677
          680 683 682 681 684 687
          686 685 688 691 690 689
          692 695 694 693 696 699
          698 697 700 703 702 701
          704 707 706 705 708 711
          710 709 712 718 717 719
          722 721 720 723 724 727
          726 725 728 731 730 729
          732 735 734 733 736 738
          737 739 742 741 740 743
          746 745 744 747 750 749
          748 751 753 752 756 755
          754 757 762 763 766 765
          764 767 768 769 772 771
          770 773 776 775 774 777
          780 779 778 781 782 785
          784 783 786 789 788 787
          790 793 792 791 794 795
          796 799 798 797 800 801
          802 804 803 805 806 807
          810 809 808 811 812 815
          814 813 816 819 818 817
          820 823 822 821 824 831
          830 829 832 835 834 833
          836 839 838 837 840 843
          842 841 844 847 846 845
          848 851 850 849 852 853
          854 857 856 855 858 861
          860 859 862 863 864 865
          868 867 866 869 870 872
          871 873 876 875 874 877
          878 881 880 879 882 885
          884 883 886 887 889 888
          890 893 892 891 894 897
          896 895 898 901 900 899
          902 905 904 903 906 907
          908 909 910 913 912 911
          914 915 918 917 916 919
          922 921 920 923 926 925
          924 927 930 929 928 931
          932 933 934 937 936 935
          938 941 940 939 942 943
          946 945 944 947 948 951
          950 949 952 954 953 957
          956 955 958 959 960 961
          962 963 966 965 964 967
          969 968 972 971 970 973
          976 975 974 977 978 981
          980 979 982 984 983 985
          988 987 986 989 990 993
          992 991 994 997 996 995
          998 1005 1004 1003 1006 1009
          1008 1007 1010 1013 1012 1011
          1014 1017 1016 1015 1018 1021
          1020 1019 1022 1025 1024 1023
          1026 1028 1027 1029 1030 1033
          1032 1031 1034 1037 1036 1035
          1038 1039 1040 1043 1042 1041
          1044 1047 1046 1045 1048 1050
          1049 1053 1052 1051 1054 1057
          1056 1055 1060 1059 1058 1061
          1063 1062 1064 1067 1066 1065
          1068 1071 1070 1069 1072 1074
          1073 1075 1076 1079 1078 1077
          1080 1083 1082 1081 1084 1085
          1088 1087 1086 1089 1090 1091
          1093 1092 1098 1099 1102 1101
          1100 1103 1106 1105 1104 1107
          1110 1109 1108 1111 1114 1113
          1112 1115 1116 1119 1118 1117
          1120 1129 1132 1131 1130 1133
          1134 1137 1136 1135 1138 1139
          1140 1143 1142 1141 1144 1149
          1150 1151 1154 1153 1152 1157
          1156 1155 1158 1161 1160 1159
          1162 1164 1163 1165 1169 1168
          1167 1170 1173 1172 1171 1174
          1177 1176 1175 1178 1181 1180
          1179 1182 1185 1184 1183 1186
          1189 1188 1187 1190 1193 1192
          1191 1194 1196 1195 1197 1199
          1198 1202 1201 1200 1203 1204
          1207 1206 1205 1208 1209 1210
          1213 1212 1211 1214 1215 1218
          1217 1216 1219 1222 1221 1220
          1223 1226 1225 1224 1227 1229
          1228 1230 1231 1233 1232 1236
          1235 1234 1237 1238 1240 1239
          1241 1243 1242 1244 1247 1246
          1245 1248 1251 1250 1249 1252
          1255 1254 1253 1256 1259 1258
          1257 1260 1263 1262 1261 1264
          1265 1268 1267 1266 1269 1272
          1271 1270 1273 1276 1275 1274
          1277 1279 1278 1280 1283 1282
          1281 1284 1289 1290 1291 1294
          1293 1292 1295 1296 1299 1298
          1297 1300 1301 1302 1305 1304
          1303 1306 1309 1308 1307 1310
          1311 1312 1317 1316 1315 1318
          1319 1322 1321 1320 1323 1324
          1326 1325 1329 1328 1327 1330
          1333 1332 1331 1334 1335 1337
          1336 1338 1341 1340 1339 1342
          1345 1344 1343 1346 1349 1348
          1347 163 590 1350 1351 1352
          1355 1354 1353 1356 1357 716
          1358 1359 519 517 1360 1361
          1363 1362 1366 1365 1364 1367
          1370 1369 1368 1373 1372 1371
          1376 1375 1374 1377 1378 1379
          1380 1381 1383 1382 1384 1385
          1388 1387 1386 1389 1390 1393
          1392 1391 1394 1398 1397 1396
          1399 1402 1401 1400 1403 1405
          1404 1406 1409 1408 1407 1410
          1413 1412 1411 1414 1415 1418
          1417 1416 1419 1422 1421 1420
          1423 1426 1425 1424 1427 1430
          1429 1428 1431 1432 1433 1434
          1435 1438 1437 1436 1439 1442
          1441 1440 1443 1446 1445 1444
          1447 1450 1449 1448 1451 1457
          1456 1455 1458 1460 1459 1463
          1462 1461 1464 1467 1466 1465
          1468 1470 1469 1472 1471 1473
          1476 1475 1474 1477 1479 1478
          1480 1483 1482 1481 1484 1487
          1486 1485 1488 1491 1490 1489
          1492 1495 1494 1493 1496 1499
          1498 1497 1500 1502 1501 1504
          1503 1505 1506 1509 1508 1507
          1510 1511 1514 1513 1512 1515
          1518 1517 1516 1519 1522 1521
          1520 1523 1526 1525 1524 1527
          1528 1530 1529 1531 1534 1533
          1532 1535 1536 1537 1539 1538
          1540 1541 1542 1545 1544 1543
          1546 1550 1549 1548 1551 1554
          1553 1552 1555 1558 1557 1556
          1559 1562 1561 1560 1563 1564
          1566 1565 1567 1570 1569 1568
          1571 1572 1575 1574 1573 1576
          1577 1582 1581 1580 1583 1587
          1586 1585 1588 1590 1589 1591
          1592 1593 1595 524 1594 1596
          1598 1597 1599 1602 1601 1600
          1605 1604 1603 1606 1607 1610
          1609 1608 1611 1613 1612 1614
          1619 1618 1617 1620 1623 1622
          1621 1624 1625 1626 1629 1628
          1627 1630 1633 1632 1631 1634
          1636 1635 1639 1638 1637 1640
          1641 1642 1643 1646 1645 1644
          1647 1650 1649 1648 1651 1652
          1655 1654 1653 1656 1659 1658
          1657 1660 1661 1662 1664 1665
          1666 1668 1667 1669 1671 1670
          1672 1674 1673 1675 1676 1677
          1680 1679 1678 1681 1683 1682
          1684 1685 1688 1687 1686 1689
          1692 1691 1690 1693 1695 1694
          1698 1699 1701 1700 1702 1706
          1709 1708 1707 1710 1711 1712
          1713 676 1714 1717 1716 1715
          1718 1721 1720 1719 1722 1725
          1724 1723 1726 1729 1728 1727
          1730 1731 1732 1735 1734 1733
          1736 1739 1738 1737 1740 1741
          1744 1743 1742 1745 1748 1747
          1746 1749 1750 1757 1756 1755
          1758 1760 1759 1761 1762 1765
          1764 1763 1766 1773 1772 1771
          1774 1777 1776 1775 1778 1780
          1779 1781 1784 1783 1782 1785
          1787 1786 1788 1789 1792 1791
          1790 1793 1794 1795 1796 1797
          1798 1799 1800 1802 1801 1803
          1806 1805 1804 1807 1808 1809
          1812 1811 1810 1813 1814 1815
          1816 1817 1818 1821 1820 1819
          1822 1823 1824 1827 1826 1825
          1828 1829 1830 1831 1834 1833
          1832 1835 1838 1837 1836 1839
          1842 1841 1840 1843 1846 1845
          1844 1847 1851 1852 1853 1854
          1857 1856 1855 1858 1861 1864
          1863 1862 1865 1866 1867 1870
          1869 1868 1871 1873 1872 1874
          1875 1877 1876 1878 1879 1882
          1881 1880 1883 1886 1885 1884
          1887 1888 1891 1890 1889 1892
          1895 1894 1893 1896 1899 1898
          1897 1900 1903 1902 1901 1904
          1906 1905 1907 1910 1909 1908
          1911 1915 1917 1916 1918 1920
          1919 1921 1922 1924 1923 1925
          1926 1927 1930 1929 1928 1931
          1934 1933 1932 1935 1938 1937
          1936 1939 1940 1943 1942 1941
          1944 1947 1946 1945 1948 1951
          1950 1949 1952 1953 1954 1955
          1956 1959 1958 1957 1960 1963
          1962 1961 1964 1965 1968 1967
          1966 1969 1971 1970 1972 1975
          1974 1973 1976 1979 1978 1977
          1980 1981 1982 1983 1988 1991
          1990 1989 1992 1993 1994 1995
          1998 1997 1996 1999 2000 2003
          2002 2001 2004 2005 2008 2007
          2006 2009 2010 2011 591 2012
          2013 2016 2015 2014 2017 2018
          2019 2021 2020 2022 2023 2026
          2025 2024 2027 2030 2029 2028
          2031 2032 2035 2034 2033 2036
          2037 2038 2039 2040 2041 2042
          2043 2046 2045 2044 2047 2050
          2049 2048 2051 2053 2052 2058
          2061 2060 2059 2065 2064 2063
          2066 2068 2067 2069 2072 2071
          2070 2073 2074 2075 2076 2079
          2078 2077 2080 2081 2082 2083
          2084 2085 2086 2087 2090 2089
          2088 2091 2092 2093 2094 2097
          2096 2095 2098 2101 2100 2099
          2102 2103 2105 2104 2106 2108
          2107 2109 2111 2110 2112 2115
          2114 2113 2116 2117 2118 2121
          2120 2119 2122 2125 2124 2123
          2126 2128 2127 2129 2130 2133
          2132 2131 2134 2135 2138 2137
          2136 2140 2139 2141 2142 2143
          2144 2145 2146 2149 2148 2147
          2150 2151 2152 2153 2154 2157
          2156 2155 2158 2159 2162 2161
          2160 2163 2164 2165 2166 2168
          2167 2169 2175 2174 2176 2177
          2180 2179 2178 2181 2182 2185
          2184 2183 2188 2187 2186 2189
          2191 2190 1767 2194 2193 2192
          2195 2198 2197 2196 2199 2200
          2203 2202 2201 2204 2205 2208
          2207 2206 2209 2210 2212 2211
          2213 2214 2215 2217 2216 2218
          2221 2220 2219 2222 2225 2224
          2223 2226 2227 2230 2229 2228
          2231 2232 2234 2233 2235 2237
          2236 2240 2239 2238 2241 2243
          2244 2245 2248 2247 2246 2249
          2252 2251 2250 2253 2254 2255
          2258 2257 2256 2259 2262 2261
          2260 2263 2265 2264 2266 2269
          2268 2267 2270 2271 2274 2273
          2272 2275 2276 2279 2278 2277
          2280 2284 2285 2287 2286 2288
          2289 2290 2291 2294 2293 2292
          2295 2296 2299 2298 2297 2300
          2302 2301 2303 2304 2306 2305
          2307 2309 2308 2310 2311 2314
          2313 2312 2315 2316 2317 2319
          2318 2320 2323 2322 2321 2324
          2325 2326 2329 2328 2327 2330
          2332 2331 2333 2334 2335 2336
          2338 2337 2339 2342 2341 2340
          2343 2344 2349 2348 2347 2350
          2351 2355 2354 2353 2356 2359
          2358 2357 2360 2361 2362 2363
          2365 2364 2367 2366 2368 2369
          2370 2373 2372 2371 2374 2375
          2377 2376 2380 2379 2378 2381
          2384 2383 2382 2385 2386 2389
          2388 2387 2390 2391 2392 2393
          2394 2397 2396 2395 2398 2401
          2400 2399 2402 2405 2404 2403
          2406 2407 2410 2409 2408 2413
          2412 2411 2414 2415 2416 2417
          2418 2421 2420 2419 2422 2424
          2423 2425 2427 2426 2428 2429
          2430 2431 2434 2433 2432 2435
          2437 2436 2438 2441 2440 2439
          2442 2445 2444 2443 2446 2448
          2447 2449 2450 2451 2452 2455
          2454 2453 2456 2457 2459 2458
          2460 2462 2461 2463 2464 2465
          2466 2471 2474 2473 2472 2475
          2478 2477 2476 2479 2481 2480
          2482 2485 2484 2483 2486 2487
          2488 2489 2490 2493 2492 2491
          2494 2497 2496 2495 2498 2501
          2500 2499 2502 2505 2504 2503
          2508 2507 2506 2509 2510 2512
          2511 2513 2516 2515 2514 2517
          2518 2519 2522 2521 2520 2523
          2524 2526 2525 2527 2528 2529
          2531 2530 2532 2533 2534 2537
          2536 2535 2538 2539 2541 2540
          2542 2543 2546 2545 2544 2547
          2548 2549 2550 2551 2554 2553
          2552 2555 2556 2557 2558 2560
          2559 2561 2562 2565 2564 2563
          2566 2062 2569 2568 2567 2573
          2572 2571 2574 2575 2577 2576
          2578 2579 2584 2585 2588 2587
          2586 2589 2592 2591 2590 2593
          2595 2594 2596 2597 2598 2601
          2600 2599 2602 2603 2606 2605
          2604 2607 2608 2609 2612 2611
          2610 2613 2616 2615 2614 2617
          2620 2619 2618 2621 2623 2628
          2627 2626 2629 2636 2635 2634
          2637 2638 2639 2640 2642 2641
          2643 2644 2647 2646 2645 2648
          2649 2652 2651 2650 2653 2654
          2657 2656 2655 2658 2659 2660
          2661 2662 2665 2664 2663 2666
          2669 2668 2667 2670 2671 2674
          2673 2672 2675 2676 2678 2677
          2679 2682 2681 2680 2683 2684
          2685 2686 2687 2690 2689 2688
          2691 2692 2693 2694 2696 2695
          2699 2698 2697 2701 2700 2702
          2703 2706 2705 2704 2707 2708
          2709 2711 2710 2714 2713 2712
          2715 2717 2716 2718 2719 2720
          2721 2724 2723 2722 2725 2726
          2727 2730 2729 2728 2734 2733
          2732 2735 2736 2737 2738 2740
          2739 2743 2742 2741 2744 2745
          2746 2749 2748 2747 2750 2753
          2752 2751 2754 2755 2756 2759
          2758 2757 2760 2761 2764 2763
          2762 2765 2766 2767 2770 2769
          2768 2771 2774 2773 2772 2775
          2776 2779 2778 2777 2780 2782
          2781 2783 2784 2785 2786 2788
          2787 2789 2792 2791 2790 2793
          2794 2796 2795 2797 2800 2799
          2798 2801 2802 2803 2805 2804
          2806 2807 2809 2808 2810 2811
          2812 2813 2816 2815 2814 2819
          2818 2817 2820 2823 2822 2821
          2824 2827 2826 2825 2828 2829
          2832 2831 2830 2833 2834 2835
          2838 2837 2836 2839 2841 2840
          2842 2844 2843 2845 2848 2847
          2846 2849 2850 2851 2853 2852
          2854 2857 2856 2855 2858 2859
          2862 2861 2860 2864 2863 2865
          2866 2869 2868 2867 2870 2872
          2871 2873 2878 2877 2876 2881
          2880 2879 2882 2885 2884 2883
          2886 2887 2889 2888 2890 2893
          2892 2891 2894 2895 2898 2897
          2896 2899 2902 2901 2900 2903
          2904 2907 2906 2905 2908 2911
          2910 2909 2912 2914 2913 2915
          81 2922 2921 2920 2923 2926
          2925 2924 2927 2929 2928 2930
          2932 2931 2933 2936 2935 2934
          2939 2938 2937 2940 2941 2944
          2943 2942 2945 2948 2947 2946
          2949 2950 2951 2953 2952 2954
          2956 2955 2958 2957 2959 2960
          2963 2962 2961 2964 2966 2965
          2967 2968 2969 2972 2971 2970
          2973 2974 2976 2975 2977 2979
          2978 2980 2981 2983 2982 2984
          2985 2988 2987 2986 2989 2990
          2991 2994 2993 2992 2995 2996
          2997 2999 2998 3000 3001 3002
          3005 3004 3003 3007 3006 3008
          3009 3010 3011 3012 3014 3013
          3015 3016 3017 3018 3020 3019
          3021 3024 3023 3022 2054 3026
          3025 3027 3031 3032 3033 3034
          3035 3036 3039 3038 3037 3040
          3043 3042 3041 3044 3047 3046
          3045 3048 3049 3050 3053 3052
          3051 3054 3056 3058 3057 3059
          3062 3061 3060 3063 3066 3065
          3064 3067 3070 3069 3068 3071
          3073 3072 3074 3077 3076 3075
          3078 3079 3083 3082 3081 3084
          3085 3086 3087 3088 3089 3092
          3091 3090 3093 3095 3094 3096
          3099 3098 3097 3100 3103 3105
          3104 3106 3107 3109 3108 3110
          3111 3112 3114 3113 3115 3117
          3116 3118 3119 3121 3120 3122
          3123 3126 3125 3124 3127 3128
          3130 3129 3131 3132 3133 3134
          3140 3139 3138 3141 3143 3142
          3146 3145 3144 3148 3147 3149
          3150 3152 3151 3153 3154 3155
          3156 3157 3158 3159 3160 3161
          3162 3163 3166 3165 3164 3167
          3170 3169 3168 3171 3173 3172
          3174 3175 3178 3177 3176 3179
          3180 3181 3182 3185 3184 3183
          3186 3187 3190 3189 3188 3191
          3192 3195 3194 3193 3197 3196
          3198 3200 3199 3201 3202 3203
          3204 3205 3206 3213 3212 3211
          3214 3215 3217 3216 3219 3218
          3220 3221 3224 3223 3222 3225
          3228 3227 3226 3229 3231 3230
          3232 3235 3234 3233 3236 3237
          3238 3243 3245 3244 3247 3246
          3248 3251 3250 3249 3252 3253
          3254 3255 3258 3257 3256 3259
          3262 3261 3260 3263 3267 3270
          3269 3268 3271 3272 3273 3276
          3275 3274 3277 3278 3279 3280
          3283 3282 3281 3284 3285 3288
          3287 3286 3289 3292 3291 3290
          3293 3295 3294 3298 3297 3296
          3299 3302 3301 3300 3303 3305
          3304 3306 3307 3310 3309 3308
          3311 3312 3313 3314 3316 3315
          3317 3318 3320 3319 3325 3326
          3327 3329 3332 3331 3330 3333
          3336 3335 3334 3338 3337 3339
          3341 3340 3343 3342 3346 3345
          3344 3347 3348 3350 3349 3351
          3352 3353 3354 3355 3356 3358
          3357 3359 3362 3361 3360 3363
          3364 3365 3366 3369 3368 3367
          3370 3372 3371 3373 3374 3376
          3375 3377 3378 3379 3381 3380
          3382 3383 3384 3385 3386 3387
          3389 3388 3390 3394 3393 3392
          3395 3397 3399 3398 3400 3401
          3404 3403 3402 3405 3406 3407
          3410 3409 3408 3411 3412 3413
          3415 3414 3416 3417 3418 3420
          3419 3423 3422 3421 3425 3424
          3426 3427 3429 3428 3430 3431
          3432 3433 3435 3434 3436 3437
          3439 3438 3440 3441 3444 3443
          3442 3445 3450 3451 3452 3453
          3454 3457 3456 3455 3458 3460
          3459 2470 3461 3462 3464 3463
          3465 3466 3468 3467 3469 3474
          3473 3472 3475 3477 3476 3480
          3479 3478 3481 3484 3483 3482
          3485 3486 3488 3487 3491 3490
          3489 3492 3493 3494 3497 3496
          3495 3498 3499 3500 3501 3506
          3507 3510 3509 3508 3511 3512
          3513 3514 3515 3516 3519 3518
          3517 3520 3521 3523 3522 3524
          3525 3526 3528 3527 3529 3530
          3531 3532 3533 3534 3535 3536
          3537 3538 3540 3539 3541 3542
          3543 3545 3544 3546 3547 3548
          3551 3550 3549 3552 3554 3553
          3555 3558 3557 3556 3559 3560
          3561 3562 3564 3563 3565 3568
          3567 3566 3569 3570 3573 3572
          3571 3574 3576 3575 3577 3580
          3579 3581 3582 3583 3584 3585
          3586 3587 3590 3589 3588 3592
          3593 3594 3595 3596 3597 3598
          3600 3599 3601 3602 3603 3606
          3605 3604 3607 3608 3609 3610
          3611 3614 3613 3612 3615 3616
          3617 3618 3619 3620 3621 3622
          3625 3624 3623 3626 3627 3628
          3629 3632 3631 3630 3633 3634
          3635 3637 3636 3638 3639 3640
          3641 3643 3642 3644 3645 3647
          3646 3648 3649 3652 3651 3650
          3653 3656 3655 3654 3657 3660
          3659 3658 3661 3663 3662 3664
          3667 3666 3665 3668 3669 3670
          3672 3671 3673 3676 3675 3674
          3677 3678 3679 3682 3681 3680
          3683 3684 3685 3687 3686 3689
          3688 3690 3691 3692 3693 3695
          3694 3696 3698 3697 3699 3700
          3701 3702 3703 3706 3705 3704
          3707 3708 3710 3709 3711 3713
          3712 3714 3715 3716 3718 3717
          3719 3721 3720 3724 3723 3722
          3725 3726 3727 3728 3729 3730
          3731 3734 3733 3732 3735 3736
          3739 3738 3737 3740 3741 3743
          3746 3745 3744 3747 3748 3749
          3750 3753 3752 3751 3754 3756
          3755 3757 3760 3759 3758 3761
          3762 3763 3764 3765 3766 3767
          3768 3769 3771 3770 3772 3773
          3774 3775 3776 3779 3778 3777
          3780 3783 3782 3781 3784 3786
          3785 3787 3789 3788 3790 3791
          3794 3793 3792 3795 3796 3797
          3798 3801 3800 3799 3802 3803
          3804 3805 3806 3807 3810 3809
          3808 3811 3814 3813 3812 3815
          3818 3817 3819 3820 3822 3823
          2916 3824 3825 3826 3827 3828
          3831 3830 3829 3832 3834 3833
          3835 3838 3837 3836 3839 3841
          3840 3842 3843 3844 3845 3846
          3848 3847 3850 3849 3851 3852
          3853 3856 3855 3854 3857 3858
          3859 3861 3860 3864 3863 3862
          3865 3866 3869 3868 3867 3870
          3871 3872 3873 3876 3875 3874
          3877 3878 3879 3881 3880 3882
          3883 3884 3891 3890 3889 3892
          3893 3894 3897 3896 3895 3898
          3900 3899 3901 3902 3903 3906
          3905 3904 3907 3908 3910 3909
          3912 3911 3913 3916 3915 3914
          3917 3918 3919 3922 3921 3920
          3925 3924 3923 3926 3927 3928
          3929 3930 3933 3932 3931 3934
          3935 3936 3937 3940 3939 3938
          3941 3942 3943 3944 3946 3945
          3947 3949 3948 3950 3951 3952
          3953 3954 3955 3958 3957 3956
          3959 3961 3960 3964 3963 3962
          3965 3966 3967 3970 3969 3968
          3971 3972 3973 3974 3977 3976
          3975 3980 3979 3978 3981 3983
          3982 3984 3985 3988 3987 3986
          3989 3990 3993 3992 3991 3994
          3995 3996 3997 3999 3998 4000
          4002 4001 4003 4004 4006 4005
          4007 4009 4008 4010 4013 4012
          4011 4014 4017 4016 4015 4018
          4019 4021 4020 4022 4025 4024
          4023 4026 4029 4028 4027 4030
          4031 4032 4035 4034 4033 4036
          4037 4038 4039 4040 4043 4042
          4041 4044 4046 4045 4047 4051
          4050 4049 4052 4053 4054 4055
          4056 4059 4058 4057 4062 4061
          4060 4063 4064 4065 4066 4067
          4068 4070 4069 4071 4073 4072
          4074 4075 4076 4077 4080 4079
          4078 4081 4084 4083 4082 4085
          4088 4087 4086 4089 4090 4091
          4094 4093 4092 4095 4098 4097
          4096 4099 4100 4101 4102 4103
          4105 4104 4106 4109 4108 4107
          4110 4111 4112 4113 4116 4115
          4114 4117 4118 4119 4120 4121
          4125 4124 4126 4127 4129 4128
          4130 4131 4132 4134 4133 4135
          4138 4137 4136 4139 4140 4143
          4142 4141 4144 4145 4147 4146
          4148 4149 4150 4151 4153 4152
          4154 4157 4156 4155 4158 4161
          4160 4159 4162 4164 4166 4165
          4169 4168 4167 4170 4171 4172
          4173 4175 4174 4176 4177 4178
          4181 4180 4179 4182 4185 4184
          4183 4186 4188 4187 4189 4191
          4190 4192 4194 4193 4195 4196
          4198 4197 4199 4200 4203 4202
          4201 4204 4205 4210 4209 4208
          4211 4212 4213 4215 4214 4216
          4219 4218 4217 4220 4223 4222
          4221 4225 4224 4226 4227 4228
          4230 4229 4231 4232 4235 4234
          4233 4236 4239 4238 4237 4240
          4243 4242 4241 4246 4245 4244
          4247 4248 4249 4250 4253 4252
          4251 4254 4255 4256 4258 4259
          4260 4263 4266 4265 4264 4267
          4268 4269 4270 4271 4272 4274
          4273 4275 4276 4279 4278 4277
          4280 4281 4284 4283 4282 4285
          4286 4287 4288 4289 4290 4293
          4292 4291 4294 4295 4298 4297
          4296 4299 4302 4301 4300 4303
          4304 4305 4306 4307 4308 4309
          4310 4313 4312 4311 4314 4315
          4317 4316 4318 4319 4321 4320
          4324 4323 4322 4326 4325 4327
          4330 4329 4328 4331 4334 4333
          4332 4335 4336 4337 4339 4338
          4340 4342 4341 4345 4344 4343
          4346 4347 4348 4351 4350 4349
          4352 4353 4354 4357 4356 4355
          4358 4361 4360 4359 4364 4367
          4366 4365 4368 4371 4370 4369
          4372 4376 4378 4377 4379 4380
          4381 4382 4383 4386 4388 4387
          4389 4390 4391 4393 4392 4394
          4397 4396 4395 4398 4400 4399
          4401 4403 4402 4404 4407 4406
          4405 4408 4409 4410 4413 4412
          4411 4414 4415 4416 4419 4418
          4417 4420 4423 4422 4421 4424
          4427 4426 4425 4428 4429 4431
          4430 4432 4435 4434 4433 4438
          4437 4436 4439 4440 4443 4442
          4441 4444 4446 4445 4449 4448
          4447 4450 4451 4452 4453 4454
          4455 4456 4457 4458 4459 4462
          4461 4465 4464 4463 4466 4468
          4467 4469 4470 4471 4472 4474
          4473 4475 4476 4477 4479 4478
          4480 4481 4482 4483 4484 4485
          4488 4487 4486 4491 4490 4489
          4492 4493 4494 4495 4498 4497
          4496 4499 4501 4500 4502 4503
          4504 4505 4506 4507 4508 4509
          4512 4511 4510 4515 4514 4513
          4516 4517 4518 4519 4522 4521
          4520 4523 4524 4525 4526 4529
          4528 4527 4530 4532 4531 4535
          4534 4533 4538 4537 4539 4540
          4541 4542 4543 4544 4545 4547
          4546 4548 4551 4550 4549 4552
          4554 4553 4555 4558 4557 4556
          4559 4560 4561 4562 4564 4563
          4566 4565 4567 4568 4569 4570
          4571 4574 4573 4572 4575 4577
          4576 4580 4579 4578 4581 4582
          4584 402 4583 3323 4586 4585
          4587 4588 4589 4590 4592 4591
          4593 4594 4597 4596 4595 4598
          4601 4600 4599 4602 4603 4604
          4605 4606 4607 4608 4609 4612
          4611 4610 4613 4614 2583 4615
          4616 4618 4617 4619 4620 4621
          4624 4625 4626 4629 4628 4627
          4630 4633 4632 4631 4634 4635
          4636 4641 4640 4639 4642 4643
          4646 4645 4644 4647 4648 4649
          4650 4651 4653 4652 4654 4655
          4658 4657 4656 4659 4660 4661
          4662 4663 4664 4665 4666 4669
          4668 4667 4670 4673 4672 4671
          4674 4676 4675 4677 4678 4679
          4680 4683 4682 4681 4684 4685
          4687 4686 4688 4689 4692 4691
          4690 4693 4695 4694 4696 4697
          4698 4699 4700 4703 4702 4701
          4704 4705 4707 4706 4708 4712
          4711 4710 4714 4713 4715 4716
          4717 4718 4720 4719 4721 4722
          4723 4724 4725 4726 4727 4730
          4729 4728 4731 4733 4732 4734
          4737 4736 4735 4738 4741 4740
          4739 4742 4743 4745 4744 4746
          4748 4747 4749 4752 4751 4750
          4753 4756 4755 4754 4757 4759
          4758 4760 4762 4761 4763 4764
          4767 4766 4765 4768 4769 4772
          4771 4770 4773 4774 4776 4775
          4777 4778 4779 4782 4781 4780
          4783 4786 4785 4784 4787 4789
          4791 4790 4792 4793 4794 4795
          4796 4797 4798 4801 4800 4799
          4802 4803 4804 4805 4806 4807
          4808 4809 4810 4811 4812 4813