<VTKFile type="UnstructuredGrid" version="1.0" byte_order="LittleEndian" header_type="UInt64">
  <UnstructuredGrid>
    <Piece NumberOfPoints="90" NumberOfCells="139">
      <PointData Scalars="bulk_node_ids">
        <DataArray type="UInt64" Name="bulk_node_ids" format="ascii" RangeMin="671" RangeMax="760">
          673 672 671 674 677 676
          675 678 681 680 679 682
          684 683 685 688 687 686
          689 692 691 690 693 696
          695 694 700 698 697 699
          701 702 703 704 707 706
          705 708 709 710 712 711
          713 714 716 715 717 718
          720 719 721 723 725 724
          722 726 727 728 729 730
          731 733 732 734 736 735
          737 738 741 740 739 743
          742 744 745 747 746 748
          749 750 751 753 752 754
          755 756 757 759 758 760
        </DataArray>
      </PointData>
      <CellData Scalars="MaterialIDs">
        <DataArray type="Int32" Name="submesh_id" format="ascii" RangeMin="2" RangeMax="2">
          2 2 2 2 2 2
          2 2 2 2 2 2
          2 2 2 2 2 2
          2 2 2 2 2 2
          2 2 2 2 2 2
          2 2 2 2 2 2
          2 2 2 2 2 2
          2 2 2 2 2 2
          2 2 2 2 2 2
          2 2 2 2 2 2
          2 2 2 2 2 2
          2 2 2 2 2 2
          2 2 2 2 2 2
          2 2 2 2 2 2
          2 2 2 2 2 2
          2 2 2 2 2 2
          2 2 2 2 2 2
          2 2 2 2 2 2
          2 2 2 2 2 2
          2 2 2 2 2 2
          2 2 2 2 2 2
          2 2 2 2 2 2
          2 2 2 2 2 2
          2
        </DataArray>
        <DataArray type="Float64" Name="recharge" format="ascii" RangeMin="173" RangeMax="175">
          173 173 175 175 173 173
          175 175 175 175 175 175
          173.097013054268 173 175 175 175 175
          175 175 173 173.966702336639 173.182664990016 173
          173.178428326514 174.143501327604 175 175 175 173
          175 173.139114382436 174.010553475484 175 173 173
          173 173 173 173 173 173
          173 173 173.901158451982 175 175 175
          173 173 175 175 175 173
          173 173 173 173 173 173.208687354643
          175 175 175 173 175 174.095405183522
          173 175 175 175 175 175
          173 175 175 175 173 173
          175 173 175 175 175 175
          175 173 175 173 175 175
          173 175 175 175 173 175
          173 173 173 173 175 173
          173 175 175 175 173 173
          173 175 175 175 175 175
          175 175 173 173 175 175
          175 173 173 175 175 173
          173 173 175 175 173 175
          175 175 175 175 173 173
          173
        </DataArray>
        <DataArray type="UInt64" Name="bulk_element_ids" format="ascii" RangeMin="1179" RangeMax="1317">
          1179 1180 1181 1182 1183 1184
          1185 1186 1187 1188 1189 1190
          1191 1192 1193 1194 1195 1196
          1197 1198 1199 1200 1201 1202
          1203 1204 1205 1206 1207 1208
          1209 1210 1211 1212 1213 1214
          1215 1216 1217 1218 1219 1220
          1221 1222 1223 1224 1225 1226
          1227 1228 1229 1230 1231 1232
          1233 1234 1235 1236 1237 1238
          1239 1240 1241 1242 1243 1244
          1245 1246 1247 1248 1249 1250
          1251 1252 1253 1254 1255 1256
          1257 1258 1259 1260 1261 1262
          1263 1264 1265 1266 1267 1268
          1269 1270 1271 1272 1273 1274
          1275 1276 1277 1278 1279 1280
          1281 1282 1283 1284 1285 1286
          1287 1288 1289 1290 1291 1292
          1293 1294 1295 1296 1297 1298
          1299 1300 1301 1302 1303 1304
          1305 1306 1307 1308 1309 1310
          1311 1312 1313 1314 1315 1316
          1317
        </DataArray>
        <DataArray type="Int32" Name="MaterialIDs" format="ascii" RangeMin="1" RangeMax="4">
          1 1 1 1 1 1
          1 1 4 4 4 4
          1 1 4 4 4 4
          4 4 1 1 1 1
          1 4 4 4 4 1
          4 1 1 1 1 1
          1 1 1 1 1 1
          1 1 1 1 1 1
          1 1 4 4 4 1
          1 1 1 1 1 1
          4 4 4 1 1 1
          1 4 4 4 1 4
          1 1 1 1 1 1
          1 1 4 4 1 1
          1 1 1 1 4 1
          1 1 1 4 1 4
          1 1 1 1 4 1
          1 1 1 1 1 1
          1 1 1 1 1 1
          1 1 1 1 1 4
          4 1 1 4 1 1
          1 1 4 1 1 1
          4 4 4 4 1 1
          1
        </DataArray>
      </CellData>
      <Points>
        <DataArray type="Float64" Name="Points" NumberOfComponents="3" format="ascii" RangeMin="7268613.675738639" RangeMax="7269209.549186708">
          4461027.42416 5739354.33046 107 4460915.91352 5739401.48523 107
          4460957.8801 5739336.55289 106 4460908.26617 5739341.18269 106
          4461071.48952 5738820.26426 107 4461086.95872 5738905.32306 105
          4461009.92228 5738902.2908 107 4461041.59561 5738937.972 104
          4460941.56629 5739170.778 105 4460978.87751 5739168.33807 105
          4460942.57485 5739204.28585 105 4461006.11634 5739220.95749 103
          4461144.77895 5738880.13232 103 4461202.33527 5738814.8077 102
          4461133.05724 5738738.23708 106 4461218.48729 5738917.80365 103
          4461297.19665 5738871.9736 102 4461271.37449 5738975.29226 104
          4461363.44545 5738943.84236 107 4461236.32986 5738721.94812 104
          4461260.19314 5738636.64163 105 4461357.71152 5738730.79885 102
          4461348.18932 5738627.0577 104 4460958.09782 5739061.96851 105
          4460996.44809 5739116.72333 106 4460933.23396 5739138.5772 105
          4461551.38021 5738535.24343 103 4461465.1209 5738506.21458 103
          4461569.44683 5738438.90685 105 4461551.38021 5738535.24343 103
          4461569.44662 5738438.90681 105 4461457.26424 5738415.54146 102
          4461457.26424 5738415.54146 102 4460962.24442 5739251.35353 103
          4461162.16126 5739057.81051 103 4461234.89962 5739055.63677 105
          4461196.63435 5739126.0759 104 4461270.04982 5739121.57358 108
          4461128.47569 5739113.53589 102 4461315.68823 5739048.76991 112
          4461298.8104 5738789.88189 102 4461411.20276 5738838.91461 108
          4461157.05769 5739181.94462 105 4461472.2592 5738735.24527 110
          4461031.36185 5739062.22547 104 4461063.23136 5739113.98487 105
          4461096.16397 5739058.32657 103 4460860.23931 5739369.0564 106
          4461112.03244 5739236.03426 106 4461094.93946 5739164.68455 104
          4461062.2992 5739207.94574 103 4460907.46129 5739249.39062 104
          4460868.90253 5739237.60246 106 4460889.92161 5739205.24782 106
          4460847.2452 5739270.93954 104 4460861.92233 5739248.34707 106
          4460868.18749 5739318.08491 104 4460933.87954 5739293.74627 104
          4461224.40858 5739194.38176 107 4461034.17261 5739164.58955 103
          4461013.14026 5739019.69281 102 4460971.57894 5739020.43146 105
          4460982.95965 5738985.36608 107 4461171.66786 5738639.79342 105
          4461533.31375 5738631.57914 102 4461427.7179 5738646.83476 102
          4461181.67327 5739250.77727 108 4461138.93621 5739307.1751 108
          4461066.86698 5739289.62424 107 4461003.91713 5739292.01978 106
          4461050.82767 5739254.24622 106 4461373.41238 5738483.61942 102
          4461345.08619 5738392.17703 108 4461277.67891 5738466.77017 107
          4460804.56951 5739336.63015 106 4461308.60185 5738555.7048 107
          4461210.27436 5738541.3603 107 4461195.73899 5738991.85914 105
          4461126.36882 5739004.83259 106 4461063.3709 5739013.19734 103
          4461474.55917 5738580.04929 102 4461084.89127 5738962.80179 103
          4461029.91107 5738975.70664 104 4461144.62394 5738942.46292 104
          4461171.66786 5738639.79342 105 4460996.44156 5738943.8266 106
          4460986.12394 5738975.61649 107 4460911.57885 5739171.91086 106
          4460933.23371 5739138.57758 105 4461399.60025 5738566.58009 102
          <InformationKey name="L2_NORM_RANGE" location="vtkDataArray" length="2">
            <Value index="0">
              7268613.6757
            </Value>
            <Value index="1">
              7269209.5492
            </Value>
          </InformationKey>
          <InformationKey name="L2_NORM_FINITE_RANGE" location="vtkDataArray" length="2">
            <Value index="0">
              7268613.6757
            </Value>
            <Value index="1">
              7269209.5492
            </Value>
          </InformationKey>
        </DataArray>
      </Points>
      <Cells>
        <DataArray type="Int64" Name="connectivity" format="ascii" RangeMin="0" RangeMax="89">
          0 1 2 3 2 1
          4 5 6 7 6 5
          8 9 10 11 10 9
          12 4 13 14 13 4
          15 16 17 18 17 16
          19 20 21 22 21 20
          23 24 25 9 25 24
          13 16 15 26 27 28
          27 26 29 30 31 28
          28 32 31 27 32 28
          33 10 11 34 35 36
          37 36 35 8 25 9
          38 34 36 39 37 35
          39 17 18 16 40 41
          21 41 40 42 38 36
          43 41 21 24 44 45
          46 45 44 19 13 14
          47 3 1 42 48 49
          50 49 48 51 52 53
          54 52 51 52 55 54
          56 54 51 57 56 51
          58 36 37 59 24 45
          44 24 23 60 44 23
          60 61 62 61 60 23
          49 38 42 63 19 14
          64 43 65 21 65 43
          18 16 41 58 66 42
          48 42 66 67 48 66
          68 69 70 11 70 69
          36 58 42 38 45 46
          40 19 21 32 71 72
          73 72 71 69 33 11
          12 13 15 34 38 46
          74 54 56 17 39 35
          73 75 76 20 76 75
          63 76 20 71 75 73
          49 59 45 77 15 17
          78 34 46 77 17 35
          9 24 59 50 70 11
          79 78 46 49 45 38
          40 16 13 80 64 65
          81 79 82 60 82 79
          79 46 44 47 74 56
          12 5 4 3 56 57
          40 13 19 7 81 82
          57 33 69 5 83 81
          78 81 83 22 65 21
          70 50 48 27 71 32
          0 69 68 59 50 11
          63 19 84 19 63 20
          29 64 80 68 48 67
          51 10 33 85 62 86
          62 85 82 60 62 82
          56 3 47 68 70 48
          11 9 59 7 82 85
          60 79 44 81 78 79
          83 15 77 77 34 78
          77 35 34 81 7 5
          25 87 88 87 25 8
          6 7 85 80 27 29
          89 27 80 87 10 53
          51 53 10 89 71 27
          12 15 83 2 57 69
          57 51 33 50 59 49
          89 75 71 12 83 5
          8 10 87 83 77 78
          22 20 75 89 80 65
          89 22 75 89 65 22
          2 3 57 2 69 0
          0 68 67
        </DataArray>
        <DataArray type="Int64" Name="offsets" format="ascii" RangeMin="3" RangeMax="417">
          3 6 9 12 15 18
          21 24 27 30 33 36
          39 42 45 48 51 54
          57 60 63 66 69 72
          75 78 81 84 87 90
          93 96 99 102 105 108
          111 114 117 120 123 126
          129 132 135 138 141 144
          147 150 153 156 159 162
          165 168 171 174 177 180
          183 186 189 192 195 198
          201 204 207 210 213 216
          219 222 225 228 231 234
          237 240 243 246 249 252
          255 258 261 264 267 270
          273 276 279 282 285 288
          291 294 297 300 303 306
          309 312 315 318 321 324
          327 330 333 336 339 342
          345 348 351 354 357 360
          363 366 369 372 375 378
          381 384 387 390 393 396
          399 402 405 408 411 414
          417
        </DataArray>
        <DataArray type="UInt8" Name="types" format="ascii" RangeMin="5" RangeMax="5">
          5 5 5 5 5 5
          5 5 5 5 5 5
          5 5 5 5 5 5
          5 5 5 5 5 5
          5 5 5 5 5 5
          5 5 5 5 5 5
          5 5 5 5 5 5
          5 5 5 5 5 5
          5 5 5 5 5 5
          5 5 5 5 5 5
          5 5 5 5 5 5
          5 5 5 5 5 5
          5 5 5 5 5 5
          5 5 5 5 5 5
          5 5 5 5 5 5
          5 5 5 5 5 5
          5 5 5 5 5 5
          5 5 5 5 5 5
          5 5 5 5 5 5
          5 5 5 5 5 5
          5 5 5 5 5 5
          5 5 5 5 5 5
          5 5 5 5 5 5
          5
        </DataArray>
      </Cells>
    </Piece>
  </UnstructuredGrid>
</VTKFile>
