<VTKFile type="UnstructuredGrid" version="1.0" byte_order="LittleEndian" header_type="UInt64">
  <UnstructuredGrid>
    <Piece NumberOfPoints="76" NumberOfCells="75">
      <PointData Scalars="bulk_node_ids">
        <DataArray type="UInt64" Name="bulk_node_ids" format="ascii" RangeMin="872" RangeMax="12296">
          1001 899 1055 872 1206 1205
          1303 1638 1637 2078 3191 3190
          4261 4260 4354 4384 3926 3939
          4543 4091 4548 4547 4576 4575
          3537 4786 4814 4813 4820 4819
          5222 5221 5402 5401 4026 5732
          5731 5757 5756 6744 6743 6804
          6803 7022 7107 5794 7210 7586
          7516 8306 8734 9450 10650 10666
          11445 11444 11609 11608 11616 11622
          11664 11698 11764 11792 11816 11889
          11963 11971 12091 12090 12189 12274
          4288 12286 12296 12295
        </DataArray>
      </PointData>
      <CellData Scalars="MaterialIDs">
        <DataArray type="Int32" Name="submesh_id" format="ascii" RangeMin="6" RangeMax="6">
          6 6 6 6 6 6
          6 6 6 6 6 6
          6 6 6 6 6 6
          6 6 6 6 6 6
          6 6 6 6 6 6
          6 6 6 6 6 6
          6 6 6 6 6 6
          6 6 6 6 6 6
          6 6 6 6 6 6
          6 6 6 6 6 6
          6 6 6 6 6 6
          6 6 6 6 6 6
          6 6 6
        </DataArray>
        <DataArray type="Float64" Name="recharge" format="ascii" RangeMin="168.02960787769" RangeMax="260">
          173.018829554542 209.32042334622 191 179.238085830367 226.641345855829 197.103367545411
          177 185 226.763764684445 193.223489307335 207.227584242201 225.287257832239
          168.246674019105 180 205.486934135161 213.170035047285 180 260
          177 204.025401367639 195.156465139862 207.989572502026 206 212.804338773406
          190.200266692132 225 246 233.553687310371 237 178
          210.228774228252 187.347001081659 185 169 178 246
          225 178 260 180.767994709462 185.672522530766 185.433744494055
          177 169 237 193.801243598155 185 191
          181.553579954502 174.573348558274 193.534250585284 180 177 185
          228.42741411662 183.575824704604 169 253.40808871309 174 178
          207.925233108165 255 185 255 171.373026570027 197.992234209419
          243.915897529895 171 173.720968512548 257.703371179755 168.02960787769 171
          171 169.720275098523 180
        </DataArray>
        <DataArray type="UInt64" Name="bulk_element_ids" format="ascii" RangeMin="1443" RangeMax="24280">
          1443 1472 1563 1618 1812 2087
          2863 3742 3824 3863 3889 4035
          4038 4060 4247 4275 4279 4665
          4859 5189 5248 5285 5338 5436
          6417 6550 6634 6929 7059 7249
          7334 7821 8735 8880 9539 10846
          13835 13885 14882 16753 17112 17521
          17544 17582 17636 17775 17926 18335
          18436 18489 18629 19104 19108 19189
          19308 19603 19646 19725 19785 19996
          20587 20701 20703 21041 21405 21794
          22884 22902 23038 23171 23234 23359
          23495 23588 24280
        </DataArray>
        <DataArray type="Int32" Name="MaterialIDs" format="ascii" RangeMin="2" RangeMax="7">
          4 2 5 5 2 2
          5 5 2 5 2 7
          4 5 2 2 5 5
          3 5 5 5 2 2
          3 5 5 5 5 4
          2 3 2 5 4 5
          5 5 5 5 4 5
          5 4 5 5 5 7
          5 5 5 5 5 2
          5 7 5 5 5 5
          5 7 5 7 5 7
          5 5 4 7 4 5
          5 5 5
        </DataArray>
      </CellData>
      <Points>
        <DataArray type="Float64" Name="Points" NumberOfComponents="3" format="ascii" RangeMin="7255604.584638174" RangeMax="7281862.650904643">
          4473882.84875 5745138.68823 68 4473278.46339 5745894.48661 66
          4461372.70519 5733347.58402 131 4461431.23945 5733779.0113 130
          4468030.11885 5735621.56378 92 4468475.66596 5735712.00998 91
          4468921.21638 5735802.45686 92 4460441.51426 5730449.44765 145
          4460472.41017 5730897.61631 147 4461085.72288 5733101.81541 132
          4473972.63022 5743868.92767 67 4473841.95457 5744349.97372 67
          4470402.84311 5737107.52113 85 4470601.2774 5737458.0082 84
          4460503.3063 5731345.78823 147 4460618.84001 5732145.9396 136
          4460708.79055 5732500.99034 136 4460561.07227 5731745.85775 139
          4459002.1823 5728276.95735 168 4459331.02546 5728608.49603 170
          4473259.86069 5742545.4137 70 4473505.92896 5742958.17524 70
          4471932.10937 5738488.26704 80 4472056.82452 5738952.97587 78
          4461375.99112 5734995.91151 128 4461317.69283 5735424.53352 161
          4461489.77364 5734210.43812 127 4461432.88268 5734603.17273 133
          4471196.39939 5738038.73604 82 4471564.25347 5738263.50098 80
          4459604.30822 5728917.02153 160 4459877.59331 5729225.54966 156
          4462454.137 5735550.19814 111 4462831.93911 5735295.45498 108
          4461259.39313 5735853.16591 122 4469216.40753 5736078.38538 89
          4469511.60398 5736354.31886 88 4461667.86282 5735829.05368 131
          4462076.33487 5735804.94131 120 4459947.41942 5729584.31809 167
          4460017.24703 5729943.09422 152 4457641.84489 5727081.18509 179
          4457887.51033 5727465.89444 172 4458280.42699 5727705.65887 178
          4458673.34385 5727945.42341 168 4464064.07181 5734620.83887 102
          4464517.16348 5734466.28918 101 4463221.45856 5735035.42262 107
          4460798.74308 5732856.04895 133 4474103.30472 5743387.88588 68
          4463610.98102 5734775.38825 104 4457396.18185 5726696.47951 176
          4460229.37931 5730196.26935 148 4464874.63718 5734750.56767 104
          4465232.11386 5735034.84852 98 4465727.64266 5735022.9482 96
          4466223.1733 5735011.04784 95 4466685.8319 5735123.19818 95
          4473862.40161 5744744.33004 67 4473804.616 5743173.02995 69
          4467148.49312 5735235.34917 94 4470204.40837 5736757.03327 87
          4467589.30195 5735428.4547 93 4472181.54023 5739417.68683 78
          4469858.00429 5736555.67497 86 4470898.83809 5737748.37182 83
          4457557.85188 5726288.60804 189 4472291.76216 5739895.26287 77
          4457374.28777 5725574.19926 187 4457719.52 5725880.74137 184
          4472401.98333 5740372.83567 75 4472581.98222 5740815.66665 74
          4457029.061 5725267.662 191 4473013.79555 5742132.65741 71
          4472761.98332 5741258.5031 73 4472887.88886 5741695.57826 72
          <InformationKey name="L2_NORM_RANGE" location="vtkDataArray" length="2">
            <Value index="0">
              7255604.5846
            </Value>
            <Value index="1">
              7281862.6509
            </Value>
          </InformationKey>
          <InformationKey name="L2_NORM_FINITE_RANGE" location="vtkDataArray" length="2">
            <Value index="0">
              7255604.5846
            </Value>
            <Value index="1">
              7281862.6509
            </Value>
          </InformationKey>
        </DataArray>
      </Points>
      <Cells>
        <DataArray type="Int64" Name="connectivity" format="ascii" RangeMin="0" RangeMax="75">
          0 1 2 3 4 5
          5 6 7 8 9 2
          10 11 12 13 8 14
          15 16 14 17 18 19
          20 21 22 23 24 25
          26 27 28 29 30 31
          32 33 25 34 35 36
          37 38 17 15 3 26
          38 32 39 40 41 42
          42 43 44 18 45 46
          27 24 33 47 16 48
          49 10 50 45 51 41
          40 52 46 53 19 30
          54 55 47 50 56 57
          11 58 21 59 43 44
          57 60 61 12 62 4
          55 56 23 63 36 64
          65 28 6 35 48 9
          52 7 13 65 59 49
          66 51 63 67 53 54
          34 37 68 69 64 61
          69 66 67 70 60 62
          31 39 70 71 58 0
          72 68 73 20 74 75
          71 74 75 73 29 22
        </DataArray>
        <DataArray type="Int64" Name="offsets" format="ascii" RangeMin="2" RangeMax="150">
          2 4 6 8 10 12
          14 16 18 20 22 24
          26 28 30 32 34 36
          38 40 42 44 46 48
          50 52 54 56 58 60
          62 64 66 68 70 72
          74 76 78 80 82 84
          86 88 90 92 94 96
          98 100 102 104 106 108
          110 112 114 116 118 120
          122 124 126 128 130 132
          134 136 138 140 142 144
          146 148 150
        </DataArray>
        <DataArray type="UInt8" Name="types" format="ascii" RangeMin="3" RangeMax="3">
          3 3 3 3 3 3
          3 3 3 3 3 3
          3 3 3 3 3 3
          3 3 3 3 3 3
          3 3 3 3 3 3
          3 3 3 3 3 3
          3 3 3 3 3 3
          3 3 3 3 3 3
          3 3 3 3 3 3
          3 3 3 3 3 3
          3 3 3 3 3 3
          3 3 3 3 3 3
          3 3 3
        </DataArray>
      </Cells>
    </Piece>
  </UnstructuredGrid>
</VTKFile>
