<VTKFile type="UnstructuredGrid" version="1.0" byte_order="LittleEndian" header_type="UInt64">
  <UnstructuredGrid>
    <Piece NumberOfPoints="179" NumberOfCells="178">
      <PointData Scalars="bulk_node_ids">
        <DataArray type="UInt64" Name="bulk_node_ids" format="ascii" RangeMin="898" RangeMax="12325">
          899 898 973 972 1028 1027
          1106 1105 1115 1114 1190 1189
          1209 1208 1318 1317 1383 1382
          1630 1900 1899 1936 1935 2427
          2426 2392 2683 2737 2959 3197
          3196 3295 2629 3327 3326 3331
          3330 3334 3333 3344 3139 3495
          2638 3633 3641 3640 3893 1256
          3943 3942 2681 4204 4203 4270
          4269 4337 4336 4372 2289 2793
          5040 5062 5061 5246 5271 5363
          5362 5378 5377 4534 5516 5558
          5608 5607 5692 5138 3343 5977
          6204 6203 6318 6317 6499 6623
          6713 6725 6736 6735 6826 2933
          7535 7577 7576 7798 7921 7920
          8002 8001 8441 8483 8482 9176
          9921 4984 10043 10458 10457 10488
          10540 10539 10564 10566 10571 10570
          10727 10839 10867 10997 10996 11048
          11360 11384 10544 11424 11423 11436
          11466 11465 11473 11506 11624 11644
          11799 11798 11823 11828 11845 11844
          11849 11859 11858 11948 11960 12003
          12046 12039 12111 12112 12121 12130
          12150 12165 12164 12180 12204 12218
          12226 12234 11855 12239 12242 12241
          12244 12247 12250 12252 12263 12262
          12278 12282 12289 12302 12305 12304
          12313 12324 12322 1581 12325
        </DataArray>
        <DataArray type="Int64" IdType="1" Name="vtkOriginalPointIds" format="ascii" RangeMin="0" RangeMax="178">
          0 1 2 3 4 5
          6 7 8 9 10 11
          12 13 14 15 16 17
          18 19 20 21 22 23
          24 25 26 27 28 29
          30 31 32 33 34 35
          36 37 38 39 40 41
          42 43 44 45 46 47
          48 49 50 51 52 53
          54 55 56 57 58 59
          60 61 62 63 64 65
          66 67 68 69 70 71
          72 73 74 75 76 77
          78 79 80 81 82 83
          84 85 86 87 88 89
          90 91 92 93 94 95
          96 97 98 99 100 101
          102 103 104 105 106 107
          108 109 110 111 112 113
          114 115 116 117 118 119
          120 121 122 123 124 125
          126 127 128 129 130 131
          132 133 134 135 136 137
          138 139 140 141 142 143
          144 145 146 147 148 149
          150 151 152 153 154 155
          156 157 158 159 160 161
          162 163 164 165 166 167
          168 169 170 171 172 173
          174 175 176 177 178
        </DataArray>
      </PointData>
      <CellData Scalars="MaterialIDs">
        <DataArray type="Int32" Name="submesh_id" format="ascii" RangeMin="5" RangeMax="5">
          5 5 5 5 5 5
          5 5 5 5 5 5
          5 5 5 5 5 5
          5 5 5 5 5 5
          5 5 5 5 5 5
          5 5 5 5 5 5
          5 5 5 5 5 5
          5 5 5 5 5 5
          5 5 5 5 5 5
          5 5 5 5 5 5
          5 5 5 5 5 5
          5 5 5 5 5 5
          5 5 5 5 5 5
          5 5 5 5 5 5
          5 5 5 5 5 5
          5 5 5 5 5 5
          5 5 5 5 5 5
          5 5 5 5 5 5
          5 5 5 5 5 5
          5 5 5 5 5 5
          5 5 5 5 5 5
          5 5 5 5 5 5
          5 5 5 5 5 5
          5 5 5 5 5 5
          5 5 5 5 5 5
          5 5 5 5 5 5
          5 5 5 5 5 5
          5 5 5 5 5 5
          5 5 5 5 5 5
          5 5 5 5
        </DataArray>
        <DataArray type="Float64" Name="recharge" format="ascii" RangeMin="154.068283670989" RangeMax="221">
          175.562348943816 170.997403933992 189.920990086705 189 165 157.109979429923
          165 189 176.912545488589 177 177 185
          155 169 177.095093100968 162.771246268286 178.334079407635 193.370256977284
          176.157439658342 165.40692938277 174 167.982734403054 177.426142926254 173
          164 171.027380908275 159 165.782635383585 163.540474406178 177
          174 188 171.561312699269 215.995141431705 174 180
          193.063879085792 180 173 180.008104353647 174.607227522944 203.665496158241
          182.848362094749 173.528909755128 173.717465818955 193 169 167.675140848763
          167.082187527004 168.364932122828 189.821467686942 205.998730807875 189.996638995208 174.849860339618
          194 168 173 164 169.604980241383 162.138978733631
          166 202.173490085398 160 193.830038275047 166.646195920374 175.188127457949
          196 160.145323460642 175.364750711422 174 176.751735374272 200.489278392922
          190 159.256088005813 200 157.054610198682 160 175
          196.729486207414 199 214.784684127692 162 160.003449858148 177.006774369924
          205.482441790612 160.009913624513 221 174 171.370195576225 156.107896666686
          169.420292639794 175.09336386005 178.833114723785 162 173.493750325871 212
          164.065863300112 174 185.994114104881 174 165.925876070985 169
          174 212 179 174 186.686276084661 166.339552803175
          177 161.085401458879 176 173 175.380238884143 188
          163.165340064652 159.312924307119 177.070386701122 205 188 176
          196 161 177 177.288455929114 160.861416347044 176
          176.07588677127 159 176 158.28746187096 176 177.656090935953
          176.999114048116 159.99189548824 179 161 176.003513441888 180.037466051146
          161 165 193.485886364684 185.096193464175 171 167.752296652666
          163 186 156 171.408200404682 167.951985492744 185.707446793483
          181.459246979062 173.862178429304 168.504863086223 177.115978348404 167.999695073714 176
          212.739434880082 155 161.533582820104 176.056293694586 154.068283670989 160
          185 155.780707171003 163.248272537786 156.986433161568 173 159.518812928168
          167.123928668147 161.554142037353 173 161 162.122058379135 165
          180.251886031597 167 161.351412734538 173
        </DataArray>
        <DataArray type="UInt64" Name="bulk_element_ids" format="ascii" RangeMin="1390" RangeMax="24294">
          1390 1428 1456 1500 1506 1552
          1564 1577 1626 1662 1807 1974
          1995 2316 2496 2532 2686 2867
          2943 2965 2969 2971 2972 2978
          3092 3195 3201 3417 3458 3547
          3693 3748 3807 3847 4186 4496
          4515 4684 4714 4818 4834 4981
          5036 5089 5197 5403 5559 5722
          5730 5839 5974 6210 6380 6505
          6521 6539 6667 7745 7789 7808
          8105 8301 8417 9026 9090 9156
          10317 10494 11693 11878 12178 13235
          13317 13492 13565 13568 13573 14072
          14435 14467 14513 15009 15215 16270
          16371 16483 16526 16657 16719 16729
          16827 16854 16978 17099 17584 17683
          17795 17826 17930 17971 18032 18311
          18323 18353 18553 18593 18668 18718
          18832 18846 18879 19081 19251 19602
          19676 19694 19959 19969 20187 20347
          20663 20724 20870 20879 20924 20938
          20941 21033 21231 21301 21368 21404
          21542 21628 21737 21804 21836 21950
          21958 22050 22056 22091 22170 22185
          22249 22257 22310 22532 22641 22922
          22937 22950 23051 23076 23159 23175
          23226 23256 23263 23432 23448 23462
          23563 23646 23661 23712 23748 23893
          24104 24281 24282 24283 24284 24285
          24286 24292 24293 24294
        </DataArray>
        <DataArray type="Int32" Name="MaterialIDs" format="ascii" RangeMin="1" RangeMax="7">
          4 1 1 1 2 1
          1 1 1 2 2 1
          1 1 1 1 1 1
          1 1 2 1 2 1
          5 1 1 1 1 1
          2 1 2 1 2 2
          1 1 1 1 1 1
          2 5 1 1 1 1
          1 1 1 1 1 2
          1 1 1 4 1 2
          1 1 2 1 5 2
          2 2 2 4 1 1
          1 1 1 1 1 2
          1 1 1 2 1 2
          1 1 1 5 2 1
          1 2 1 2 5 1
          2 5 1 5 2 1
          2 1 1 5 1 1
          4 1 1 1 1 1
          2 1 1 1 1 1
          2 1 1 1 1 1
          1 1 1 1 1 1
          1 1 1 1 1 1
          1 2 1 1 1 1
          1 1 1 1 1 1
          1 1 1 1 1 3
          1 1 1 1 1 1
          1 1 1 1 1 1
          1 1 1 1 1 1
          1 1 7 1
        </DataArray>
        <DataArray type="Int64" IdType="1" Name="vtkOriginalCellIds" format="ascii" RangeMin="0" RangeMax="177">
          0 1 2 3 4 5
          6 7 8 9 10 11
          12 13 14 15 16 17
          18 19 20 21 22 23
          24 25 26 27 28 29
          30 31 32 33 34 35
          36 37 38 39 40 41
          42 43 44 45 46 47
          48 49 50 51 52 53
          54 55 56 57 58 59
          60 61 62 63 64 65
          66 67 68 69 70 71
          72 73 74 75 76 77
          78 79 80 81 82 83
          84 85 86 87 88 89
          90 91 92 93 94 95
          96 97 98 99 100 101
          102 103 104 105 106 107
          108 109 110 111 112 113
          114 115 116 117 118 119
          120 121 122 123 124 125
          126 127 128 129 130 131
          132 133 134 135 136 137
          138 139 140 141 142 143
          144 145 146 147 148 149
          150 151 152 153 154 155
          156 157 158 159 160 161
          162 163 164 165 166 167
          168 169 170 171 172 173
          174 175 176 177
        </DataArray>
      </CellData>
      <Points>
        <DataArray type="Float64" Name="Points" NumberOfComponents="3" format="ascii" RangeMin="7249779.209592196" RangeMax="7285673.8418247495">
          4473278.46339 5745894.48661 66 4472674.07686 5746650.28645 64
          4442988.35535 5741014.89724 115 4442710.67882 5740617.76569 116
          4446783.87018 5765594.06812 79 4446506.19693 5765194.47529 79
          4447579.74071 5765295.27554 79 4447181.80309 5765444.67271 79
          4443774.50135 5751423.54066 94 4443980.81504 5751042.95306 100
          4466795.82662 5753906.59238 67 4466872.00284 5754349.32497 67
          4446631.38579 5745535.21488 106 4446296.17019 5745172.81729 106
          4456428.00453 5763041.85588 74 4455958.96091 5763143.75691 74
          4445122.88777 5757727.69683 86 4445504.23022 5757519.64529 86
          4444741.54894 5757935.7464 86 4439324.36006 5738522.0965 125
          4438931.93697 5738264.89648 126 4467316.11742 5752692.81295 65
          4467241.94941 5753157.38059 66 4442072.85558 5739877.49079 118
          4441712.70629 5739534.34247 120 4440931.87612 5739136.47253 122
          4440582.2403 5738870.59608 121 4441322.28784 5739335.40578 121
          4440232.60803 5738604.72232 122 4443673.01509 5760633.1249 85
          4443707.41072 5760179.20733 83 4447235.26602 5746206.32484 104
          4446966.60435 5745897.61568 104 4444254.78556 5754503.63363 92
          4444058.41067 5754095.42736 92 4458777.22031 5761565.69247 73
          4458334.47579 5761704.12537 80 4444404.27225 5758649.96667 85
          4444572.91048 5758292.85677 86 4447255.77314 5747657.92314 102
          4447309.16763 5747299.46884 101 4446144.98023 5749266.1837 96
          4446544.10412 5749198.06211 98 4442433.00749 5740220.6416 116
          4464355.05552 5756954.70456 68 4463892.64686 5757046.50373 69
          4443814.13186 5741503.3235 113 4443401.24057 5741259.10857 114
          4461292.61573 5758266.48097 73 4460962.47196 5758636.44526 70
          4447503.93289 5746515.03998 103 4444723.09867 5754863.55813 92
          4444488.93989 5754683.59417 97 4448709.91419 5765142.09489 78
          4448341.41902 5765417.86871 78 4444625.79761 5742435.72806 112
          4444443.87788 5742014.42227 112 4434345.40455 5735981.73679 150
          4433903.45414 5735834.61435 155 4443862.03603 5753687.22158 91
          4444124.1406 5759001.30151 85 4444025.3069 5761350.72989 82
          4443638.61943 5761087.0428 82 4439778.48103 5738563.40914 124
          4447406.55059 5746907.25308 102 4451730.98002 5763990.73214 76
          4451320.06065 5764170.34181 76 4453186.96998 5763815.8124 76
          4452712.66803 5763912.04062 75 4444764.62312 5761927.24202 81
          4444411.99811 5761614.41954 82 4443844.00742 5759352.63828 85
          4445451.45796 5755630.34687 89 4445135.35375 5755369.53352 89
          4454126.02728 5763575.18651 75 4453661.27338 5763719.58388 75
          4445214.35636 5743690.15538 108 4445011.03621 5743273.59342 111
          4445482.431 5744604.30736 107 4445348.39293 5744147.22881 108
          4437881.42853 5737442.88691 131 4437630.22222 5737053.27943 131
          4445117.25202 5762240.06794 81 4446228.52837 5764794.88921 80
          4443626.60533 5753307.67645 100 4437379.01912 5736663.67693 134
          4457891.73617 5761842.55675 73 4457513.7453 5762156.66658 74
          4447104.67674 5748340.43713 99 4447202.37791 5748016.38237 100
          4445967.31849 5749579.60271 94 4444187.12698 5750662.36869 94
          4444581.49001 5750449.84998 95 4444129.00578 5741758.87362 112
          4445593.86824 5763509.65918 80 4445453.8942 5763062.86171 81
          4444975.85182 5750237.33193 96 4445382.75534 5750065.17636 97
          4445789.65679 5749893.02167 99 4443391.17794 5752928.13664 93
          4443625.11427 5752535.95201 93 4443775.7101 5759765.9166 84
          4444929.22309 5755116.54199 91 4438539.51833 5738007.69938 128
          4438210.46945 5737725.28973 129 4435569.50919 5736113.05518 144
          4435106.22673 5736073.78729 146 4445981.18485 5764375.6726 80
          4466877.58152 5755697.00355 67 4466409.23029 5755808.04109 68
          4436032.79406 5736152.32328 142 4466912.88071 5755244.52476 68
          4462947.85532 5757259.403 68 4462465.46818 5757380.5041 69
          4444807.71832 5742857.03612 109 4445733.84291 5763956.45867 80
          4436510.95312 5736088.82042 138 4443859.0485 5752143.77088 93
          4443816.77484 5751783.65506 94 4465940.88408 5755919.07744 67
          4445285.57202 5762651.46217 81 4465466.55165 5756074.34409 67
          4436989.10939 5736025.31793 136 4445912.06979 5756781.00139 87
          4445839.81949 5756336.08298 88 4466948.17902 5754792.05731 67
          4468128.37355 5749330.97862 66 4468408.99467 5749667.43057 64
          4445708.1499 5757150.32352 86 4454590.78323 5763430.7885 74
          4445767.56946 5755891.16623 88 4434725.81501 5736027.76196 157
          4471747.30293 5746758.13154 66 4471257.27902 5746799.41312 65
          4449078.40867 5764866.32158 78 4445889.29818 5744888.56064 106
          4468383.86141 5748286.0955 64 4468115.80863 5748640.31169 65
          4468286.84375 5750084.38083 64 4469430.5072 5747321.1268 65
          4469015.97832 5747544.0518 64 4447960.57825 5765356.57187 78
          4464673.64043 5756592.15591 68 4452221.82358 5763951.38642 76
          4455489.92014 5763245.65733 74 4464992.22352 5756229.60934 68
          4456781.87841 5762756.31706 74 4468699.92126 5747915.07202 66
          4469845.03439 5747098.20271 64 4463430.23946 5757138.30266 69
          4455040.35345 5763338.22255 74 4468164.693 5750501.33049 64
          4467908.89175 5750886.27985 65 4470306.1437 5746969.44921 63
          4457135.7513 5762470.77903 74 4470767.25724 5746840.69452 64
          4472210.68981 5746704.20901 66 4462044.11461 5757638.51009 70
          4461622.75885 5757896.51743 70 4437184.06256 5736344.49466 137
          4450909.14422 5764349.95018 77 4450460.95738 5764522.57324 77
          4467847.75471 5748994.5294 64 4459100.86136 5761224.26549 71
          4460632.61337 5758997.14959 70 4449545.5924 5764780.7579 78
          4459920.3326 5760067.92704 72 4459672.41876 5760475.38132 72
          4450012.7757 5764695.1943 78 4459424.50445 5760882.83637 71
          4467018.88721 5753531.98785 67 4467653.0859 5751271.23611 65
          4467521.68543 5751749.7429 65 4467390.28438 5752228.25183 65
          4460302.75704 5759357.85144 71 4460111.54611 5759712.88684 70
          4446943.2287 5749129.94039 99 4446975.1025 5748897.21435 99
          4447006.97601 5748664.49042 99
          <InformationKey name="L2_NORM_RANGE" location="vtkDataArray" length="2">
            <Value index="0">
              7249779.2096
            </Value>
            <Value index="1">
              7285673.8418
            </Value>
          </InformationKey>
          <InformationKey name="L2_NORM_FINITE_RANGE" location="vtkDataArray" length="2">
            <Value index="0">
              7249779.2096
            </Value>
            <Value index="1">
              7285673.8418
            </Value>
          </InformationKey>
        </DataArray>
      </Points>
      <Cells>
        <DataArray type="Int64" Name="connectivity" format="ascii" RangeMin="0" RangeMax="178">
          0 1 2 3 4 5
          6 7 8 9 10 11
          12 13 7 4 14 15
          16 17 18 16 19 20
          21 22 23 24 25 26
          27 25 26 28 29 30
          31 32 32 12 33 34
          35 36 37 38 39 40
          41 42 3 43 44 45
          46 47 48 49 50 31
          51 52 53 54 55 56
          57 58 34 59 60 37
          61 62 28 63 40 64
          65 66 67 68 69 70
          71 60 72 73 74 75
          62 29 76 77 24 27
          47 2 78 79 80 81
          82 69 5 83 59 84
          81 85 86 87 88 89
          90 41 43 23 91 92
          93 46 94 95 96 97
          70 61 98 90 99 100
          30 101 92 96 84 99
          102 51 103 104 105 106
          83 107 108 109 110 105
          111 108 112 113 114 55
          107 115 115 94 116 110
          117 118 109 119 38 18
          95 120 119 121 122 116
          123 124 77 114 11 125
          126 127 17 128 129 74
          100 117 130 72 106 131
          118 8 128 123 104 80
          124 130 56 93 79 76
          52 33 131 57 132 133
          73 102 134 53 135 78
          136 137 127 138 139 140
          89 39 64 50 54 141
          97 98 142 44 143 65
          120 82 141 6 15 144
          101 71 121 145 146 14
          147 136 145 142 68 143
          148 139 45 149 144 150
          151 152 153 148 150 129
          154 146 149 112 133 155
          138 151 156 132 63 19
          157 158 9 91 85 159
          160 161 162 126 163 35
          49 164 165 134 125 111
          87 154 166 167 168 165
          66 160 137 162 169 163
          140 147 36 86 1 156
          159 122 22 170 113 157
          155 153 152 171 172 173
          161 168 170 10 164 174
          171 172 167 169 173 21
          174 175 158 48 75 67
          176 177 177 178 13 135
          20 103 175 166 42 176
          178 88
        </DataArray>
        <DataArray type="Int64" Name="offsets" format="ascii" RangeMin="2" RangeMax="356">
          2 4 6 8 10 12
          14 16 18 20 22 24
          26 28 30 32 34 36
          38 40 42 44 46 48
          50 52 54 56 58 60
          62 64 66 68 70 72
          74 76 78 80 82 84
          86 88 90 92 94 96
          98 100 102 104 106 108
          110 112 114 116 118 120
          122 124 126 128 130 132
          134 136 138 140 142 144
          146 148 150 152 154 156
          158 160 162 164 166 168
          170 172 174 176 178 180
          182 184 186 188 190 192
          194 196 198 200 202 204
          206 208 210 212 214 216
          218 220 222 224 226 228
          230 232 234 236 238 240
          242 244 246 248 250 252
          254 256 258 260 262 264
          266 268 270 272 274 276
          278 280 282 284 286 288
          290 292 294 296 298 300
          302 304 306 308 310 312
          314 316 318 320 322 324
          326 328 330 332 334 336
          338 340 342 344 346 348
          350 352 354 356
        </DataArray>
        <DataArray type="UInt8" Name="types" format="ascii" RangeMin="3" RangeMax="3">
          3 3 3 3 3 3
          3 3 3 3 3 3
          3 3 3 3 3 3
          3 3 3 3 3 3
          3 3 3 3 3 3
          3 3 3 3 3 3
          3 3 3 3 3 3
          3 3 3 3 3 3
          3 3 3 3 3 3
          3 3 3 3 3 3
          3 3 3 3 3 3
          3 3 3 3 3 3
          3 3 3 3 3 3
          3 3 3 3 3 3
          3 3 3 3 3 3
          3 3 3 3 3 3
          3 3 3 3 3 3
          3 3 3 3 3 3
          3 3 3 3 3 3
          3 3 3 3 3 3
          3 3 3 3 3 3
          3 3 3 3 3 3
          3 3 3 3 3 3
          3 3 3 3 3 3
          3 3 3 3 3 3
          3 3 3 3 3 3
          3 3 3 3 3 3
          3 3 3 3 3 3
          3 3 3 3 3 3
          3 3 3 3
        </DataArray>
      </Cells>
    </Piece>
  </UnstructuredGrid>
</VTKFile>
