<VTKFile type="UnstructuredGrid" version="1.0" byte_order="LittleEndian" header_type="UInt64">
  <UnstructuredGrid>
    <Piece NumberOfPoints="480" NumberOfCells="861">
      <PointData Scalars="bulk_node_ids">
        <DataArray type="UInt64" Name="bulk_node_ids" format="ascii" RangeMin="0" RangeMax="479">
          2 1 0 3 6 5
          4 7 8 9 12 11
          10 13 16 15 14 19
          18 17 20 23 22 21
          24 27 26 25 28 31
          30 29 32 35 34 33
          36 39 38 37 40 43
          42 41 44 47 46 45
          48 49 50 53 52 51
          54 57 56 55 58 61
          60 59 62 65 64 63
          66 69 68 67 70 71
          72 75 74 73 76 79
          78 77 80 83 82 81
          84 85 86 87 90 89
          88 91 92 93 94 97
          96 95 98 101 100 99
          102 105 104 103 106 107
          110 109 108 111 114 113
          112 115 116 117 118 119
          120 121 122 125 124 123
          126 128 127 129 131 130
          132 133 134 137 136 135
          138 139 140 141 143 142
          144 146 145 148 147 149
          150 151 154 153 152 155
          157 156 158 159 160 163
          162 161 164 166 165 167
          168 169 171 170 172 173
          176 175 174 177 178 181
          180 179 182 183 185 184
          186 187 188 189 192 191
          190 193 194 195 196 198
          200 199 197 202 201 203
          205 204 206 208 207 209
          210 211 212 213 214 215
          216 217 219 218 222 221
          220 223 224 225 226 228
          227 229 232 231 230 233
          235 234 236 237 238 239
          240 241 242 244 243 247
          246 245 248 249 250 251
          253 252 254 255 258 257
          256 259 261 260 262 263
          264 265 267 266 268 269
          270 271 274 273 272 275
          277 276 278 280 279 281
          282 283 284 286 285 289
          288 287 290 291 292 293
          294 295 296 297 300 299
          298 302 301 303 306 305
          304 308 307 309 311 310
          312 313 314 316 315 317
          318 319 321 320 322 324
          323 325 326 327 329 328
          330 331 332 333 335 334
          336 337 338 339 340 341
          342 343 344 345 346 347
          348 349 350 351 352 353
          356 355 354 357 358 359
          360 361 362 363 364 366
          365 367 368 369 370 371
          374 373 372 375 376 377
          378 379 380 381 382 384
          383 385 386 389 388 387
          390 392 391 393 394 397
          396 395 398 400 399 401
          402 403 406 405 404 407
          408 409 410 412 411 413
          414 416 415 417 418 419
          420 421 422 423 424 425
          427 426 428 429 430 431
          434 433 432 435 436 437
          439 438 440 441 442 443
          444 445 446 447 448 449
          450 451 453 452 454 456
          455 457 458 460 459 461
          462 463 464 465 466 467
          468 470 469 471 472 473
          474 475 476 477 478 479
        </DataArray>
      </PointData>
      <CellData Scalars="MaterialIDs">
        <DataArray type="Int32" Name="submesh_id" format="ascii" RangeMin="3" RangeMax="3">
          3 3 3 3 3 3
          3 3 3 3 3 3
          3 3 3 3 3 3
          3 3 3 3 3 3
          3 3 3 3 3 3
          3 3 3 3 3 3
          3 3 3 3 3 3
          3 3 3 3 3 3
          3 3 3 3 3 3
          3 3 3 3 3 3
          3 3 3 3 3 3
          3 3 3 3 3 3
          3 3 3 3 3 3
          3 3 3 3 3 3
          3 3 3 3 3 3
          3 3 3 3 3 3
          3 3 3 3 3 3
          3 3 3 3 3 3
          3 3 3 3 3 3
          3 3 3 3 3 3
          3 3 3 3 3 3
          3 3 3 3 3 3
          3 3 3 3 3 3
          3 3 3 3 3 3
          3 3 3 3 3 3
          3 3 3 3 3 3
          3 3 3 3 3 3
          3 3 3 3 3 3
          3 3 3 3 3 3
          3 3 3 3 3 3
          3 3 3 3 3 3
          3 3 3 3 3 3
          3 3 3 3 3 3
          3 3 3 3 3 3
          3 3 3 3 3 3
          3 3 3 3 3 3
          3 3 3 3 3 3
          3 3 3 3 3 3
          3 3 3 3 3 3
          3 3 3 3 3 3
          3 3 3 3 3 3
          3 3 3 3 3 3
          3 3 3 3 3 3
          3 3 3 3 3 3
          3 3 3 3 3 3
          3 3 3 3 3 3
          3 3 3 3 3 3
          3 3 3 3 3 3
          3 3 3 3 3 3
          3 3 3 3 3 3
          3 3 3 3 3 3
          3 3 3 3 3 3
          3 3 3 3 3 3
          3 3 3 3 3 3
          3 3 3 3 3 3
          3 3 3 3 3 3
          3 3 3 3 3 3
          3 3 3 3 3 3
          3 3 3 3 3 3
          3 3 3 3 3 3
          3 3 3 3 3 3
          3 3 3 3 3 3
          3 3 3 3 3 3
          3 3 3 3 3 3
          3 3 3 3 3 3
          3 3 3 3 3 3
          3 3 3 3 3 3
          3 3 3 3 3 3
          3 3 3 3 3 3
          3 3 3 3 3 3
          3 3 3 3 3 3
          3 3 3 3 3 3
          3 3 3 3 3 3
          3 3 3 3 3 3
          3 3 3 3 3 3
          3 3 3 3 3 3
          3 3 3 3 3 3
          3 3 3 3 3 3
          3 3 3 3 3 3
          3 3 3 3 3 3
          3 3 3 3 3 3
          3 3 3 3 3 3
          3 3 3 3 3 3
          3 3 3 3 3 3
          3 3 3 3 3 3
          3 3 3 3 3 3
          3 3 3 3 3 3
          3 3 3 3 3 3
          3 3 3 3 3 3
          3 3 3 3 3 3
          3 3 3 3 3 3
          3 3 3 3 3 3
          3 3 3 3 3 3
          3 3 3 3 3 3
          3 3 3 3 3 3
          3 3 3 3 3 3
          3 3 3 3 3 3
          3 3 3 3 3 3
          3 3 3 3 3 3
          3 3 3 3 3 3
          3 3 3 3 3 3
          3 3 3 3 3 3
          3 3 3 3 3 3
          3 3 3 3 3 3
          3 3 3 3 3 3
          3 3 3 3 3 3
          3 3 3 3 3 3
          3 3 3 3 3 3
          3 3 3 3 3 3
          3 3 3 3 3 3
          3 3 3 3 3 3
          3 3 3 3 3 3
          3 3 3 3 3 3
          3 3 3 3 3 3
          3 3 3 3 3 3
          3 3 3 3 3 3
          3 3 3 3 3 3
          3 3 3 3 3 3
          3 3 3 3 3 3
          3 3 3 3 3 3
          3 3 3 3 3 3
          3 3 3 3 3 3
          3 3 3 3 3 3
          3 3 3 3 3 3
          3 3 3 3 3 3
          3 3 3 3 3 3
          3 3 3 3 3 3
          3 3 3 3 3 3
          3 3 3 3 3 3
          3 3 3 3 3 3
          3 3 3 3 3 3
          3 3 3 3 3 3
          3 3 3 3 3 3
          3 3 3 3 3 3
          3 3 3 3 3 3
          3 3 3 3 3 3
          3 3 3 3 3 3
          3 3 3 3 3 3
          3 3 3 3 3 3
          3 3 3 3 3 3
          3 3 3 3 3 3
          3 3 3 3 3 3
          3 3 3 3 3 3
          3 3 3
        </DataArray>
        <DataArray type="Float64" Name="recharge" format="ascii" RangeMin="168" RangeMax="179">
          179 179 179 179 179 178.241948654733
          176 176 179 179 170 170
          176 176 176.506577696455 173.884276762897 168 168
          175.779710063516 173.546581594535 168 168 178 178
          176 176 176 176 176 176
          170 170 179 179 171 171
          176 176 176 176 171 171
          170 170.074081263943 179 179 179 171
          168 168 179 170 170 177.406336559935
          176 179 179 179 178 178
          170 170 170 168 168 168
          170 170 170 170.059571446725 168 168
          179 176 176 171 171 171
          171 179 176 171 171 168
          170 176.351036246871 176 177.052427545268 176 176
          176 171 171 168 168 179
          179 171 171 168 168 168
          176 176 179 176 178 178
          170 170 176 178 170 171
          179 168 168 170 179 170
          168.424303872142 169.292956012979 179 179 171 171
          179 179 176 176 176 168.273758944045
          176 176 176 170.963700633032 168.629862912496 179
          179 168 179 177.99999940727 177.99999940727 177.99999940727
          171.018307174777 176 178.972382969389 177.748315280336 171 171
          170.940507486068 170.60540703681 168 170 168 170.982100028795
          171 171 168 168 168 171
          171 171 168.155997623522 168 168 168
          176 171 171 168 168 170.116368098139
          171 168 176 176 176 168
          168.281858154008 171 171 171 171 168
          178 176 168.045886285616 176 176 168
          171 168 170 176 176 171
          171 170.250896861586 178 170 176 176
          179 168 168 168 168 179
          176 168 168 176 171 171
          178 178 176 175.691995307564 172.345290258516 172.345290258516
          170.948168883979 171 168 179 179 177.999997795746
          176.415137152497 171 171 171 169.598090226655 179
          176 176 171 171 169.796612155274 170
          170 177.707729162012 175.48774311706 168 170.620568910649 171
          171 169.114950893201 178 178 168 178.216041471789
          178.994843493061 170 168 179 171 171
          178 170 170.529022345955 171 170.954523280269 171
          179 178.931335946978 170 170 179 171
          171 170 170 171 168.293312218544 178
          171 170.624081567331 171 178.889137654258 179 170
          177.068564216076 171 171 171 171 177.779260222571
          179 178 171 171 171 171
          171 171 171 171.110341159782 171 171
          177.600081381648 171 174.431962587504 179 171 171
          171 171 171 171 171 171
          179 171 171 171 179 172.260998920901
          173.233161813272 179 176 171 179 170
          177.713491538782 171 179 171.018276285581 179 171
          171 171 171 171 168 179
          179 171 179 168.18680608818 170.135302954761 171
          171 179 171 179 175.040614023884 171
          171 179 168.182392965021 171 171 171.240669207683
          174.527207537044 179 176 176 171.28036662093 179
          171 171 171 177.343394118371 171 171
          168 179 171 179 170.915263356845 168.322915481057
          179 179 171.714875420201 179 179 171
          179 179 168.221907446351 171.013820191934 171.013820191934 171
          171 170.331319434322 170.186755444363 171 179 178.953649123706
          171 171 179 179 171 177.115896381657
          171.812272959531 173.973164522945 171.41326215173 179 174.792107623631 171
          179 171 171 171 171 179
          171 171 171 176 176 176
          171 179 170.524202708888 170 171 171
          171 171 170 170 171 171
          171 171 168 179 171 179
          171.997520173929 171.061867728791 179 171 171 170
          170 171 171 170 171 178
          179 170 171 168.929780388003 171 171
          176 170.699555608262 171 170 177.842257243271 170
          170 171 168 176 170 170
          176 171 171 171 171 170.503877054792
          176 171 176.052709518171 171 176 176
          176 171 170 171 173.645922729034 176
          168.036013603041 170.583755182494 171 176 170 170
          176 168 168 170 170 168
          171 176 179 178.942933169463 176 168
          170.931782460759 177.116001039185 176.439678105515 170 168 168
          176 176 171 171 175.336910453649 176
          176 171 176 170 176 176
          178 176 176 168 168 171
          176 171 176 176 176 170.978747533822
          170 176 177.68481643045 168 168 176
          170 171 177.708233374249 171 171 179
          176 174.833538798818 176 175.822673296736 171 179
          179 170 170 179 176 176
          176 176 176 171 170 171
          171 171 176 176 171 176
          171 176 170 170.871207524874 176.108054310638 176
          170 174.820223973362 179 168 170 170
          170 176 170 176.372731735283 176.010321925184 176
          171 176.023754429449 176 177.100770141661 170 171
          174.220354948994 170 176 170 179 179
          168 176 169.795874417264 170 171 170
          170 169.42743316568 170 168 170 170
          168.072359376993 171 170.545707869541 176 176 176
          174.814474521614 176 176 179 170 179
          176 176 179 176 176 176
          171 171 176 179 178 176
          171 179 179 168 168 168
          179 179 179 176 178.024147239669 176.51832778188
          170 176 179 170 176 170
          170 176 171 175.607234037755 172 171
          170 177.663862565076 176 176 177.954137154413 176
          178.587933007571 179 179 171 177.964094914804 176
          176 168 168 177.95750325569 176 176
          170 178 171 176 170.371130762889 176
          176 171 170 176 170 171
          176 170 171 171 168 176
          170.957854573076 178 179 176 168 176
          170 174.93107067178 170 176 168 176
          176 178.312012202504 179 171 170 168
          170 178 170 170 176 170
          179 178.652244080504 178.354517675474 171 176 171
          171 176 171 170 179 169.678601416792
          169.678601416792 176 176 179 176 168
          171 176 176 169.927704409717 176 168.950424160084
          170 176 177.947014683986 177.961530812715 178 168
          179 178 178 178 171 179
          176 168 170 171 179 179
          176 176 171 176.726902748772 176.695231869452 179
          179 179 176 178 178 170
          171 170 179 179 178 168
          171 176 170 179 170 170
          170 178.876898462448 170 170 179 170
          179 171 176 171 170 179
          179 171 168 170 176 171
          170.940539978838 179 170 179 170 179
          170 176 170 171.05765465908 176.024825625381 170
          171.979860938115 176 172.958314277892 170.700081073041 171 176
          176 179 170 170 170 176
          178.657419193712 170 168 176 170 171
          171.015772700397 178 176 179 176 179
          168.179217884403 170 178 178 176 170
          178 170 170 170 171 179
          168.169339653513 170 170 170 168 178
          170 171 170 170 170 170
          170 179 178.968342167489
        </DataArray>
        <DataArray type="UInt64" Name="bulk_element_ids" format="ascii" RangeMin="0" RangeMax="860">
          0 1 2 3 4 5
          6 7 8 9 10 11
          12 13 14 15 16 17
          18 19 20 21 22 23
          24 25 26 27 28 29
          30 31 32 33 34 35
          36 37 38 39 40 41
          42 43 44 45 46 47
          48 49 50 51 52 53
          54 55 56 57 58 59
          60 61 62 63 64 65
          66 67 68 69 70 71
          72 73 74 75 76 77
          78 79 80 81 82 83
          84 85 86 87 88 89
          90 91 92 93 94 95
          96 97 98 99 100 101
          102 103 104 105 106 107
          108 109 110 111 112 113
          114 115 116 117 118 119
          120 121 122 123 124 125
          126 127 128 129 130 131
          132 133 134 135 136 137
          138 139 140 141 142 143
          144 145 146 147 148 149
          150 151 152 153 154 155
          156 157 158 159 160 161
          162 163 164 165 166 167
          168 169 170 171 172 173
          174 175 176 177 178 179
          180 181 182 183 184 185
          186 187 188 189 190 191
          192 193 194 195 196 197
          198 199 200 201 202 203
          204 205 206 207 208 209
          210 211 212 213 214 215
          216 217 218 219 220 221
          222 223 224 225 226 227
          228 229 230 231 232 233
          234 235 236 237 238 239
          240 241 242 243 244 245
          246 247 248 249 250 251
          252 253 254 255 256 257
          258 259 260 261 262 263
          264 265 266 267 268 269
          270 271 272 273 274 275
          276 277 278 279 280 281
          282 283 284 285 286 287
          288 289 290 291 292 293
          294 295 296 297 298 299
          300 301 302 303 304 305
          306 307 308 309 310 311
          312 313 314 315 316 317
          318 319 320 321 322 323
          324 325 326 327 328 329
          330 331 332 333 334 335
          336 337 338 339 340 341
          342 343 344 345 346 347
          348 349 350 351 352 353
          354 355 356 357 358 359
          360 361 362 363 364 365
          366 367 368 369 370 371
          372 373 374 375 376 377
          378 379 380 381 382 383
          384 385 386 387 388 389
          390 391 392 393 394 395
          396 397 398 399 400 401
          402 403 404 405 406 407
          408 409 410 411 412 413
          414 415 416 417 418 419
          420 421 422 423 424 425
          426 427 428 429 430 431
          432 433 434 435 436 437
          438 439 440 441 442 443
          444 445 446 447 448 449
          450 451 452 453 454 455
          456 457 458 459 460 461
          462 463 464 465 466 467
          468 469 470 471 472 473
          474 475 476 477 478 479
          480 481 482 483 484 485
          486 487 488 489 490 491
          492 493 494 495 496 497
          498 499 500 501 502 503
          504 505 506 507 508 509
          510 511 512 513 514 515
          516 517 518 519 520 521
          522 523 524 525 526 527
          528 529 530 531 532 533
          534 535 536 537 538 539
          540 541 542 543 544 545
          546 547 548 549 550 551
          552 553 554 555 556 557
          558 559 560 561 562 563
          564 565 566 567 568 569
          570 571 572 573 574 575
          576 577 578 579 580 581
          582 583 584 585 586 587
          588 589 590 591 592 593
          594 595 596 597 598 599
          600 601 602 603 604 605
          606 607 608 609 610 611
          612 613 614 615 616 617
          618 619 620 621 622 623
          624 625 626 627 628 629
          630 631 632 633 634 635
          636 637 638 639 640 641
          642 643 644 645 646 647
          648 649 650 651 652 653
          654 655 656 657 658 659
          660 661 662 663 664 665
          666 667 668 669 670 671
          672 673 674 675 676 677
          678 679 680 681 682 683
          684 685 686 687 688 689
          690 691 692 693 694 695
          696 697 698 699 700 701
          702 703 704 705 706 707
          708 709 710 711 712 713
          714 715 716 717 718 719
          720 721 722 723 724 725
          726 727 728 729 730 731
          732 733 734 735 736 737
          738 739 740 741 742 743
          744 745 746 747 748 749
          750 751 752 753 754 755
          756 757 758 759 760 761
          762 763 764 765 766 767
          768 769 770 771 772 773
          774 775 776 777 778 779
          780 781 782 783 784 785
          786 787 788 789 790 791
          792 793 794 795 796 797
          798 799 800 801 802 803
          804 805 806 807 808 809
          810 811 812 813 814 815
          816 817 818 819 820 821
          822 823 824 825 826 827
          828 829 830 831 832 833
          834 835 836 837 838 839
          840 841 842 843 844 845
          846 847 848 849 850 851
          852 853 854 855 856 857
          858 859 860
        </DataArray>
        <DataArray type="Int32" Name="MaterialIDs" format="ascii" RangeMin="0" RangeMax="2">
          0 0 0 0 0 0
          0 0 0 0 1 1
          0 0 0 0 1 1
          0 0 0 0 2 2
          0 0 0 0 0 0
          1 1 0 0 1 1
          0 0 0 0 0 0
          1 1 0 0 0 0
          1 1 0 1 1 0
          0 0 0 0 2 0
          1 1 1 0 0 0
          1 1 1 1 1 1
          0 0 0 0 0 1
          1 0 0 0 0 1
          1 0 0 0 0 0
          0 0 0 0 0 0
          0 0 0 1 1 1
          0 0 0 0 0 0
          1 1 0 2 1 0
          0 1 1 1 0 1
          1 1 0 0 1 1
          0 0 0 0 0 1
          0 0 0 0 0 0
          0 0 0 2 2 2
          1 0 0 0 1 1
          1 1 1 1 0 0
          0 1 1 1 1 0
          1 1 1 1 1 1
          0 0 0 1 1 1
          1 1 0 0 0 0
          0 1 1 1 1 1
          2 0 1 0 0 0
          1 0 1 0 0 0
          0 1 2 1 0 0
          0 1 1 1 1 0
          0 0 1 0 1 1
          0 0 0 0 0 0
          1 0 0 0 0 2
          0 0 0 0 1 0
          0 0 0 0 1 1
          1 0 0 0 0 0
          0 1 0 0 0 0
          0 1 1 0 0 0
          2 1 1 0 1 1
          0 0 1 1 0 0
          0 1 1 0 1 2
          0 0 0 0 0 1
          0 0 1 0 0 0
          0 0 0 0 0 0
          0 0 1 0 0 0
          0 0 0 0 0 0
          1 1 0 0 0 0
          0 0 0 0 0 0
          0 0 0 1 0 1
          0 0 0 0 0 1
          1 0 0 0 0 0
          0 0 0 1 1 0
          0 0 1 0 0 0
          0 0 0 0 0 0
          0 0 0 0 0 0
          0 0 0 0 0 1
          0 0 1 0 1 0
          0 0 1 0 0 0
          0 0 0 1 1 0
          0 0 0 0 0 0
          0 0 0 0 0 0
          0 0 0 0 0 0
          0 1 1 1 0 0
          0 0 0 0 0 0
          0 0 1 1 1 0
          0 1 1 1 0 0
          0 0 0 0 0 0
          1 1 0 0 1 1
          1 0 1 1 1 2
          0 1 0 1 0 0
          0 1 1 1 0 1
          1 0 0 0 1 1
          0 0 0 1 1 1
          0 0 0 0 0 0
          0 1 1 1 0 0
          0 1 1 0 1 1
          0 1 0 1 1 0
          0 0 0 0 0 0
          1 0 0 1 0 1
          0 0 1 1 0 0
          0 0 0 1 0 0
          2 0 0 1 0 0
          0 1 0 0 0 1
          1 0 0 1 1 0
          1 0 2 1 0 0
          0 0 0 0 1 0
          0 1 1 0 0 0
          0 0 0 0 1 0
          0 0 0 0 0 0
          0 0 1 1 0 0
          1 0 0 1 1 1
          1 0 1 0 0 0
          1 0 0 0 1 0
          0 1 0 1 0 0
          0 0 0 1 1 1
          1 0 1 0 1 1
          0 0 1 0 0 0
          0 0 0 0 1 0
          0 0 0 0 0 0
          0 0 0 0 0 0
          0 0 0 1 1 1
          0 0 0 0 0 0
          1 0 0 1 0 1
          1 0 0 0 1 0
          1 0 0 0 2 0
          0 0 0 0 0 0
          0 1 1 0 0 0
          1 2 0 0 1 0
          0 0 1 0 1 1
          0 1 0 1 1 0
          1 0 0 0 0 0
          1 0 1 0 0 0
          0 0 0 1 1 1
          1 0 1 1 0 1
          0 0 0 1 0 1
          1 0 1 1 0 1
          1 0 0 0 0 1
          1 0 0 1 0 1
          1 0 0 0 0 0
          0 2 2 0 0 0
          0 1 1 1 0 0
          0 0 1 0 0 0
          0 0 0 0 0 1
          0 1 0 0 0 1
          0 0 1 0 1 1
          1 0 1 1 0 1
          0 0 0 0 1 0
          0 0 1 1 0 0
          0 0 1 0 1 0
          1 0 1 1 0 1
          1 0 0 1 1 0
          0 0 1 1 1 0
          0 1 0 0 1 1
          1 0 0 0 0 0
          1 1 0 0 0 1
          2 1 1 1 0 0
          1 1 1 1 1 2
          1 0 1 1 1 1
          1 0 0
        </DataArray>
      </CellData>
      <Points>
        <DataArray type="Float64" Name="Points" NumberOfComponents="3" format="ascii" RangeMin="7266997.503719176" RangeMax="7269953.5634992905">
          4455630.17505 5742630.10539 128 4455520.66647 5742693.69453 126
          4455543.71339 5742554.15703 128 4455437.0321 5742606.97537 128
          4455834.33885 5742375.92481 132 4455958.40394 5742345.70646 133
          4455911.55419 5742498.84034 132 4456031.49872 5742446.05499 134
          4455999.55603 5742610.15995 132 4456104.59761 5742546.40917 134
          4454163.01319 5742514.9675 121 4454050.30638 5742487.40757 121
          4454131.56081 5742390.89595 122 4454024.588 5742381.93234 123
          4455741.67045 5742616.37905 128 4455783.71663 5742502.14975 130
          4455867.88961 5742618.64978 130 4454571.73896 5743950.85533 107
          4454604.24275 5744017.54761 106 4454513.2045 5743978.6446 107
          4454548.02406 5744097.26267 107 4454370.49179 5742077.90114 125
          4454398.24844 5741981.15442 125 4454459.89047 5742062.35925 125
          4454494.84159 5741980.56522 126 4455873.55503 5742901.6434 123
          4455993.54771 5742855.00835 123 4455942.89978 5743002.94452 121
          4456034.07107 5742973.78328 120 4454512.87343 5743607.72911 113
          4454595.91383 5743669.43356 112 4454505.60408 5743729.30947 111
          4454581.18933 5743762.71048 110 4454979.85856 5742850.37656 122
          4454930.43011 5742952.95318 120 4454867.38467 5742833.7133 121
          4454809.61721 5742956.83076 119 4454887.07348 5743263.56241 115
          4454873.22334 5743379.21787 115 4454772.87924 5743296.09656 115
          4454781.60818 5743416.15837 114 4454547.52571 5741818.71664 126
          4454659.25081 5741798.62523 127 4454616.4473 5741889.05712 126
          4454704.65825 5741874.14062 128 4454766.64035 5742739.87125 121
          4454731.33728 5742852.57939 119 4454639.16626 5742751.43249 120
          4454620.13137 5742876.95141 117 4454041.00307 5742274.4067 124
          4454171.44787 5742276.80486 123 4454307.83654 5742681.49338 119
          4454290.72971 5742551.98386 121 4454418.79583 5742605.30543 121
          4454385.68164 5742512.98084 122 4455217.53233 5743920.95439 108
          4455294.52547 5744015.40201 108 4455172.96922 5744007.95404 107
          4455237.36391 5744096.02733 106 4455493.51762 5742351.47561 130
          4455501.05911 5742221.00888 132 4455615.53287 5742318.61866 130
          4455609.81032 5742205.42735 131 4456547.07464 5743618.61476 115
          4456533.30127 5743504.86978 113 4456640.26099 5743525.8096 115
          4456631.97268 5743424.78629 115 4454809.02535 5741996.71398 129
          4454886.6118 5741978.59791 132 4454860.30702 5742064.5736 128
          4454934.76176 5742030.84107 133 4454954.46893 5742116.0079 131
          4454106.36615 5742213.6654 123 4455769.77968 5743377.21807 115
          4455884.95508 5743413.20229 114 4455779.51342 5743503.3985 113
          4455909.23 5743531.62963 113 4455984.37979 5744056.37892 109
          4455896.94443 5743985.40329 110 4456010.25621 5743944.13053 110
          4455929.59949 5743875.5759 111 4455298.15684 5742434.11053 129
          4455392.80695 5742380.00864 130 4455365.68375 5742523.95055 128
          4455468.71849 5742475.04826 129 4456017.11539 5743103.07803 118
          4454618.75934 5743554.87072 113 4454686.16266 5743624.74271 113
          4454976.89092 5744335.11835 106 4454875.03808 5744301.61179 107
          4454967.30929 5744213.18345 106 4454863.78273 5744190.39829 106
          4454445.9855 5741913.65385 126 4455012.23725 5742033.64531 133
          4455700.0698 5742413.69829 130 4455091.63347 5742373.91401 130
          4455183.79213 5742285.97355 130 4455192.5029 5742418.76585 129
          4455287.72413 5742332.04076 130 4454697.69931 5741725.99161 128
          4454736.14636 5741653.36075 130 4454784.25356 5741743.20057 130
          4454837.86039 5741672.78769 134 4455695.07966 5744057.98061 109
          4455785.78837 5744027.49801 109 4455777.06193 5744179.79769 107
          4455872.69812 5744103.23598 108 4455872.69959 5744103.2348 108
          4454757.81061 5743065.82906 117 4454688.96902 5742971.38753 118
          4454757.81074 5743065.82924 117 4454878.17714 5743058.2793 117
          4455561.25581 5744104.72797 107 4455566.28619 5744210.39843 107
          4455457.22116 5744125.21904 107 4455467.10926 5744226.49033 107
          4455685.0751 5743942.18676 109 4456096.0613 5744009.52249 110
          4454718.48585 5743503.69715 113 4454783.98773 5743595.69713 113
          4455624.54461 5742727.31099 127 4454230.14533 5742450.31925 122
          4454697.7006 5742651.50496 122 4455750.84184 5743106.36513 120
          4455811.23796 5743198.94049 117 4455686.6652 5743209.32342 118
          4455753.28495 5743281.11944 116 4456512.38363 5743402.07703 111
          4456631.97237 5743424.78624 115 4454420.7064 5742729.74136 118
          4455821.1906 5743007.24862 121 4455880.15743 5743105.07692 119
          4454507.99955 5743807.89398 110 4455813.91501 5743913.11102 110
          4455057.15434 5742110.87484 132 4454922.24309 5742500.54863 127
          4454986.87135 5742416.53109 129 4455016.10854 5742540.28885 127
          4455079.0191 5742462.29383 128 4454313.31729 5742012.62943 125
          4454856.28691 5742150.12703 127 4454891.91755 5742599.42581 125
          4455999.86298 5743443.49748 113 4456031.52666 5743560.0917 113
          4455953.03632 5743643.87759 112 4454703.63345 5743173.40519 116
          4454821.84555 5743168.24896 116 4455945.0376 5742724.16172 129
          4455805.87642 5742728.28482 128 4455881.40295 5742804.16922 126
          4456107.30056 5743035.4276 118 4454574.9535 5743826.52492 109
          4454800.87215 5743768.67828 111 4454712.42279 5743787.27673 110
          4454747.22759 5743696.56224 112 4454659.11098 5743724.68697 111
          4454096.25893 5742130.41397 124 4454204.6158 5742176.13878 124
          4454177.28145 5742088.36171 124 4455727.24216 5742320.4432 131
          4454977.11728 5742668.78114 126 4454969.8688 5741965.19315 134
          4454923.14095 5741908.8227 134 4455006.76071 5741903.04238 134
          4454965.29342 5741847.02503 135 4454686.55482 5744004.41526 106
          4454667.43623 5744126.63399 107 4454528.92153 5741907.93977 126
          4454744.94385 5744080.72442 106 4455089.59312 5742280.45126 131
          4454882.4699 5743579.89848 113 4454843.61819 5743676.21438 112
          4455649.30073 5744139.43687 107 4455047.79137 5744271.50146 106
          4454677.78658 5743867.25315 109 4454761.64275 5743853.72409 109
          4454719.65212 5743931.96926 108 4454811.3089 5743928.46466 108
          4455701.04363 5742239.58903 131 4456290.56261 5743737.7393 109
          4456370.93188 5743659.43728 110 4456405.67372 5743789.77859 112
          4456475.78857 5743704.68548 111 4455659.82693 5742522.09473 129
          4454202.75641 5741983.38694 125 4454089.51208 5742034.62482 124
          4454006.91088 5742071.60302 124 4454854.90761 5743844.71212 109
          4454018.16684 5742171.2607 124 4454194.97002 5742633.24682 119
          4455137.45002 5743452.51006 114 4455027.5458 5743469.70141 114
          4455058.12734 5743355.94394 115 4454966.88327 5743400.80098 114
          4455393.62569 5742280.38877 131 4454952.51921 5743320.39955 115
          4454584.53528 5741970.04757 126 4456314.4224 5743855.9422 112
          4456422.90923 5743910.11796 114 4456328.5924 5743981.88376 111
          4456422.90923 5743910.11796 114 4455116.03716 5742193.78226 131
          4455026.73435 5742204.44133 131 4455004.99106 5742297.77783 131
          4455853.85664 5743813.54243 111 4455974.35853 5743766.04059 111
          4455883.64122 5743715.66206 111 4455267.70823 5743833.01257 110
          4455157.1158 5743830.44105 109 4455103.60212 5743916.70133 108
          4454520.14269 5743486.15015 114 4454582.8459 5744215.8885 107
          4454649.45323 5743280.98695 116 4455089.56213 5743557.17153 113
          4455196.78111 5743545.70549 113 4456028.22561 5743845.91586 111
          4454898.24986 5743756.36329 111 4455186.42748 5743347.09777 115
          4456582.88847 5743732.59309 118 4456517.22492 5743838.35303 117
          4455050.43071 5743832.38245 110 4454952.24655 5743837.15413 110
          4454997.05558 5743748.16617 111 4454940.79906 5743663.25467 112
          4454318.68563 5742438.83712 122 4455655.70216 5743323.40685 116
          4455689.8628 5743431.00639 115 4455042.3046 5743656.1774 112
          4455099.03785 5743742.64788 110 4455148.64014 5743647.98848 112