<VTKFile type="UnstructuredGrid" version="1.0" byte_order="LittleEndian" header_type="UInt64">
  <UnstructuredGrid>
    <Piece NumberOfPoints="191" NumberOfCells="318">
      <PointData Scalars="bulk_node_ids">
        <DataArray type="UInt64" Name="bulk_node_ids" format="ascii" RangeMin="480" RangeMax="670">
          482 481 480 483 484 486
          485 489 488 487 490 493
          492 491 495 494 498 497
          496 499 502 501 500 503
          506 505 504 507 510 509
          508 511 513 512 514 515
          518 517 516 519 521 520
          522 524 523 525 526 528
          527 529 530 532 531 533
          536 535 534 537 538 541
          540 539 542 545 544 543
          546 547 548 549 552 551
          550 553 554 555 557 556
          558 559 560 561 562 565
          564 563 566 567 568 571
          570 569 572 574 573 577
          576 575 578 579 580 581
          582 583 585 584 586 587
          588 589 590 591 592 593
          594 595 597 596 598 599
          601 600 602 604 603 605
          606 607 609 608 611 613
          612 610 614 615 616 617
          618 619 620 621 622 623
          624 625 627 626 628 629
          632 631 630 634 633 635
          636 637 638 639 640 641
          642 644 643 645 646 648
          647 649 650 651 654 653
          652 655 656 657 658 660
          659 661 662 663 664 665
          666 668 667 669 670
        </DataArray>
      </PointData>
      <CellData Scalars="MaterialIDs">
        <DataArray type="Int32" Name="submesh_id" format="ascii" RangeMin="1" RangeMax="1">
          1 1 1 1 1 1
          1 1 1 1 1 1
          1 1 1 1 1 1
          1 1 1 1 1 1
          1 1 1 1 1 1
          1 1 1 1 1 1
          1 1 1 1 1 1
          1 1 1 1 1 1
          1 1 1 1 1 1
          1 1 1 1 1 1
          1 1 1 1 1 1
          1 1 1 1 1 1
          1 1 1 1 1 1
          1 1 1 1 1 1
          1 1 1 1 1 1
          1 1 1 1 1 1
          1 1 1 1 1 1
          1 1 1 1 1 1
          1 1 1 1 1 1
          1 1 1 1 1 1
          1 1 1 1 1 1
          1 1 1 1 1 1
          1 1 1 1 1 1
          1 1 1 1 1 1
          1 1 1 1 1 1
          1 1 1 1 1 1
          1 1 1 1 1 1
          1 1 1 1 1 1
          1 1 1 1 1 1
          1 1 1 1 1 1
          1 1 1 1 1 1
          1 1 1 1 1 1
          1 1 1 1 1 1
          1 1 1 1 1 1
          1 1 1 1 1 1
          1 1 1 1 1 1
          1 1 1 1 1 1
          1 1 1 1 1 1
          1 1 1 1 1 1
          1 1 1 1 1 1
          1 1 1 1 1 1
          1 1 1 1 1 1
          1 1 1 1 1 1
          1 1 1 1 1 1
          1 1 1 1 1 1
          1 1 1 1 1 1
          1 1 1 1 1 1
          1 1 1 1 1 1
          1 1 1 1 1 1
          1 1 1 1 1 1
          1 1 1 1 1 1
          1 1 1 1 1 1
          1 1 1 1 1 1
        </DataArray>
        <DataArray type="Float64" Name="recharge" format="ascii" RangeMin="170" RangeMax="174">
          171 171 171 171 171 172
          172 172 172 172 171 171
          172 172 172 172 172 172
          172 172 171 170.4128481163 170.991817708402 172
          172 172 172 172 170.333499126683 170.440258606948
          170 172 171 171 172 172
          172 171 171 172 172 172
          172 172 170 170 172 173.584608225114
          174 172 172.372272684542 172 172 172
          172 171.987553360865 172 170.992189573707 172 171
          171 172 170 172 172 172
          172 170.635271922629 172 171 170.130458747052 170.795964693018
          172 170.774700867257 171 172 171 170
          172 172 170.397677326366 172.476918332166 171 172
          171 171 172 172 171 171
          171 171 171 170.077502826391 171 171
          170.414147128398 170.414147128398 170.414147128398 172 172 172
          170 171 171 172 171.622525522341 171.007858040032
          170 170 171 172 172 170
          170 172 172 172 171 171.010162161718
          171.698092979841 171 172 171 171.789898806285 171
          172 172 170.108632717721 172 172 172
          171.092916968667 174 173.897598348836 172 172 170
          174 174 172 172 172 173.872730421754
          174 174 174 172 174 172
          171 171 172 174 173.8431345586 171
          174 174 170.063994541168 171 172 172
          172 172 172 172 172 172
          174 174 172 172 171 173.361282655192
          172 172.306761393833 172 172 172 172
          171 171 171 174 174 172
          172 174 172 172 171 172
          171 172 171 172 172 172
          172 172 172 172 172 172
          171.973550391238 171.160280877231 172 172 173.072725591913 173.756493133849
          174 172 172 171 171 172
          172.83870528915 172 172 171 174 172
          172 172 172 172 171 172
          172 174 172 172 172 174
          172 172 172 172 172 172
          171 171.606082622992 171.864148391043 172 172 172
          171.505601833936 171 171 170.93364854027 172 172
          172 174 172 171 174 171
          170.885238069229 172 172 172 172 172
          172 172 172 172 172 172
          172 172 172 172 172 172
          172 172 172 174 171.97442310399 171
          171 172 174 172 171 171
          171 174 172.273158606636 172 172 172
          172 172 172 172 172 172
          172 172 172 172 172 172
          172 172 172 172 171 172
          172 172 172 171 172 172
        </DataArray>
        <DataArray type="UInt64" Name="bulk_element_ids" format="ascii" RangeMin="861" RangeMax="1178">
          861 862 863 864 865 866
          867 868 869 870 871 872
          873 874 875 876 877 878
          879 880 881 882 883 884
          885 886 887 888 889 890
          891 892 893 894 895 896
          897 898 899 900 901 902
          903 904 905 906 907 908
          909 910 911 912 913 914
          915 916 917 918 919 920
          921 922 923 924 925 926
          927 928 929 930 931 932
          933 934 935 936 937 938
          939 940 941 942 943 944
          945 946 947 948 949 950
          951 952 953 954 955 956
          957 958 959 960 961 962
          963 964 965 966 967 968
          969 970 971 972 973 974
          975 976 977 978 979 980
          981 982 983 984 985 986
          987 988 989 990 991 992
          993 994 995 996 997 998
          999 1000 1001 1002 1003 1004
          1005 1006 1007 1008 1009 1010
          1011 1012 1013 1014 1015 1016
          1017 1018 1019 1020 1021 1022
          1023 1024 1025 1026 1027 1028
          1029 1030 1031 1032 1033 1034
          1035 1036 1037 1038 1039 1040
          1041 1042 1043 1044 1045 1046
          1047 1048 1049 1050 1051 1052
          1053 1054 1055 1056 1057 1058
          1059 1060 1061 1062 1063 1064
          1065 1066 1067 1068 1069 1070
          1071 1072 1073 1074 1075 1076
          1077 1078 1079 1080 1081 1082
          1083 1084 1085 1086 1087 1088
          1089 1090 1091 1092 1093 1094
          1095 1096 1097 1098 1099 1100
          1101 1102 1103 1104 1105 1106
          1107 1108 1109 1110 1111 1112
          1113 1114 1115 1116 1117 1118
          1119 1120 1121 1122 1123 1124
          1125 1126 1127 1128 1129 1130
          1131 1132 1133 1134 1135 1136
          1137 1138 1139 1140 1141 1142
          1143 1144 1145 1146 1147 1148
          1149 1150 1151 1152 1153 1154
          1155 1156 1157 1158 1159 1160
          1161 1162 1163 1164 1165 1166
          1167 1168 1169 1170 1171 1172
          1173 1174 1175 1176 1177 1178
        </DataArray>
        <DataArray type="Int32" Name="MaterialIDs" format="ascii" RangeMin="0" RangeMax="1">
          1 1 0 0 0 0
          0 0 0 0 1 0
          0 0 0 0 0 0
          0 0 1 1 1 1
          1 0 0 0 1 0
          0 0 0 0 0 0
          0 0 0 0 0 0
          0 0 1 1 0 0
          0 0 0 0 0 0
          0 0 0 0 0 0
          0 0 1 0 0 0
          0 1 1 1 0 0
          0 1 1 0 0 1
          0 0 0 0 0 0
          0 0 0 0 0 1
          1 0 0 1 1 0
          0 0 0 0 0 0
          1 0 0 0 0 0
          1 1 0 0 0 1
          1 0 0 0 0 0
          0 0 0 0 0 0
          0 0 1 0 0 0
          0 0 0 0 1 1
          0 0 0 0 0 0
          0 0 0 0 0 0
          1 0 0 0 0 0
          0 0 1 0 0 0
          0 0 0 0 0 0
          0 1 0 0 1 0
          0 0 0 1 0 0
          0 0 0 0 0 0
          0 0 0 0 0 0
          0 0 0 0 0 0
          0 0 0 0 0 1
          0 0 0 0 0 0
          0 0 0 0 0 0
          0 0 0 1 0 0
          0 0 0 0 0 0
          0 0 0 0 0 0
          0 0 0 0 0 0
          0 0 0 0 0 0
          0 1 0 1 0 0
          0 0 0 0 0 0
          1 0 0 0 0 0
          0 0 0 0 0 0
          0 0 0 0 0 0
          0 0 0 0 0 1
          0 1 0 0 0 0
          0 0 0 1 0 0
          0 0 0 0 0 0
          0 0 0 0 0 0
          0 0 0 0 0 0
          0 0 0 0 0 0
        </DataArray>
      </CellData>
      <Points>
        <DataArray type="Float64" Name="Points" NumberOfComponents="3" format="ascii" RangeMin="7269601.919671176" RangeMax="7271483.160903842">
          4458305.31068 5742175.203 98 4458235.17589 5742059.83735 106
          4458390.52734 5742099.04191 96 4458339.94311 5742000.83261 99
          4458495.56256 5742045.15412 100 4458444.71129 5741941.82732 95
          4458495.56256 5742045.15412 100 4458379.23337 5743299.41527 96
          4458266.14835 5743348.88889 96 4458290.71027 5743211.98438 93
          4458179.67001 5743251.35333 94 4457857.29503 5743185.76272 94
          4457924.61679 5743275.89968 95 4457766.40279 5743270.29895 96
          4457837.42245 5743363.53787 97 4457766.40279 5743270.29895 96
          4458340.48836 5742520.61191 96 4458324.58933 5742391.85231 98
          4458436.52305 5742463.69329 96 4458434.14067 5742356.77148 98
          4458719.44307 5743014.82558 98 4458637.99479 5743117.03255 94
          4458570.13214 5743010.89949 99 4458504.51034 5743142.89109 94
          4458917.61691 5743474.48616 99 4458956.09358 5743548.07136 101
          4458860.95487 5743533.21951 100 4458918.4506 5743628.48424 102
          4458813.13705 5743427.40546 97 4458756.2146 5743401.2292 96
          4458814.44987 5743346.35042 96 4458742.50064 5743341.69681 96
          4458141.08738 5743345.30396 96 4458062.25937 5743228.27964 94
          4458034.24542 5743335.79852 95 4458247.31603 5742477.40274 98
          4458098.94838 5742613.28735 96 4458230.87649 5742595.27008 95
          4458162.05935 5742721.33688 95 4458264.48898 5742700.0971 94
          4457858.41718 5743071.56245 93 4457955.13792 5743155.22174 93
          4457962.49987 5743043.67855 93 4458860.83688 5743459.84731 98
          4458877.08873 5743402.41036 97 4458953.05248 5743396.90235 97
          4458145.68578 5742496.35107 98 4458234.15297 5742831.5789 92
          4458103.08305 5742839.42933 94 4458041.1149 5742737.18371 95
          4458453.83735 5743045.07398 93 4458366.84182 5742263.81686 98
          4458477.35202 5742230.37504 96 4458528.39136 5742319.00067 97
          4459045.46229 5743551.31623 103 4459116.36334 5743625.01714 109
          4459015.10619 5743624.97084 105 4459058.97058 5743674.20473 109
          4458376.08355 5743118.03373 93 4458557.82708 5742753.51719 99
          4458445.6082 5742699.54656 94 4458552.09765 5742631.89653 99
          4458444.59827 5742580.4318 94 4458701.74673 5743201.00522 94
          4458765.82919 5743270.85363 95 4458675.78283 5743303.83326 96
          4458408.56272 5743210.26267 94 4458598.31214 5743223.10739 95
          4458576.51508 5743329.41978 96 4457971.43017 5742625.99209 98
          4459178.98962 5743481.30035 104 4459253.2261 5743406.34781 106
          4459262.61414 5743517.78633 110 4459333.47457 5743464.68556 108
          4458901.51715 5743320.56964 95 4459146.91028 5743395.88841 101
          4459000.58914 5743474.57334 99 4459045.13149 5743395.20997 97
          4458995.4213 5743313.91165 95 4459001.2862 5743723.96254 112
          4458886.22591 5743724.51268 109 4458654.4881 5742924.77614 98
          4458646.27361 5743360.76739 96 4458453.73939 5742821.45892 94
          4458352.27077 5742892.00776 93 4458349.31956 5742764.19168 93
          4457917.88269 5742738.93563 97 4459092.19123 5743308.32167 95
          4459089.4712 5743474.40341 101 4457853.26852 5742845.91885 95
          4457917.30602 5742953.64988 94 4457788.65435 5742952.90206 100
          4458180.53914 5742172.08716 103 4458046.39808 5742965.68114 93
          4457978.22579 5742848.38475 94 4458125.9022 5742284.33737 102
          4458248.96908 5742274.91353 98 4458194.94016 5742382.92831 98
          4459195.27863 5743303.26208 103 4458024.9782 5742513.04738 100
          4458157.51393 5742927.20185 93 4458733.96357 5743110.38319 98
          4458541.90605 5742518.15182 97 4458533.4156 5742414.34044 97
          4458650.37602 5742560.0755 96 4458659.2132 5742684.1327 101
          4458075.44072 5742398.6912 99 4458180.53914 5742172.08716 103
          4457955.25022 5743400.57436 97 4458258.78067 5743083.77133 92
          4458358.26172 5743011.06601 92 4458668.05063 5742808.19329 106
          4458561.90689 5742877.20849 99 4458159.48116 5743149.19442 92
          4458460.199 5742942.47959 95 4458345.65706 5742640.46087 94
          4458049.23671 5743098.84914 92 4458151.37475 5743034.78615 92
          4457971.43017 5742625.99209 98 4458252.56082 5742964.53376 92
          4458313.54825 5743485.71342 98 4458193.31352 5743461.66242 97
          4458073.08153 5743437.61195 97 4459369.68161 5743542.80273 112
          4459286.78903 5743625.04693 113 4459197.68687 5743582.58307 109
          4458825.53617 5743623.26025 102 4457742.02098 5743064.98169 104
          4459360.8705 5743382.15846 108 4459452.57328 5743460.55943 112
          4458467.38124 5743358.27006 97 4458555.66654 5743424.14047 97
          4458434.60634 5743454.92721 98 4458555.6668 5743424.1404 97
          4459299.65879 5743296.86061 107 4459403.82109 5743288.87961 110
          4459345.89073 5743202.85111 110 4458805.32583 5743166.70986 94
          4459446.47517 5743362.25205 111 4459242.29312 5743214.17847 109
          4459289.87566 5743116.90793 109 4459391.90011 5743111.1719 111
          4458633.13432 5742453.12473 96 4459125.59467 5743542.92404 105
          4459040.40726 5743224.53226 94 4457777.33595 5743146.92359 97
          4458801.73804 5743070.15504 97 4458884.71832 5743096.22142 96
          4458889.77981 5743176.80789 94 4458697.69963 5743376.64483 96
          4459546.9615 5743204.46279 112 4459447.70712 5743199.14908 111
          4459493.92918 5743105.43562 112 4459116.34611 5743723.4124 115
          4459201.56752 5743674.22969 113 4458490.34277 5743258.8818 95
          4459138.21471 5743218.68455 101 4458608.87863 5743395.06515 97
          4458943.88312 5743237.41447 92 4458633.13432 5742453.12473 96
          4458615.89422 5742346.18385 99 4459497.94109 5743290.39365 112
          4458753.32743 5742896.90167 103 4459091.63107 5743127.34515 106
          4458977.13405 5743134.18049 94 4457695.38638 5743177.06429 104
          4458854.09687 5743247.24733 94 4459185.46097 5743065.89793 108
          4459189.49511 5743148.60281 108 4458811.48875 5743481.54239 98
          4458581.15431 5742247.33254 107 4458546.41541 5742148.48413 104
          4458712.25594 5743497.40547 100 4458760.08141 5743464.8934 98
          4458764.84955 5743522.01301 100 4459599.99774 5743303.49729 113
          4458707.15147 5743439.81259 97 4458659.66632 5743472.79979 99
          4459526.28687 5743382.02691 112 4458607.66308 5743448.46847 98
          4458654.53319 5743416.12337 97 4458838.61138 5742985.61748 97
          4458959.82847 5743000.25285 108 4458886.2252 5743724.51151 109
          4458402.90968 5742184.98621 97 4459081.04726 5743014.88842 109
          4458366.97737 5743388.68169 97 4459081.04722 5743014.88842 109
          4459027.41021 5743069.16673 95 4458959.82847 5743000.25285 108
          4458464.7253 5742139.13664 96
          <InformationKey name="L2_NORM_RANGE" location="vtkDataArray" length="2">
            <Value index="0">
              7269601.9197
            </Value>
            <Value index="1">
              7271483.1609
            </Value>
          </InformationKey>
          <InformationKey name="L2_NORM_FINITE_RANGE" location="vtkDataArray" length="2">
            <Value index="0">
              7269601.9197
            </Value>
            <Value index="1">
              7271483.1609
            </Value>
          </InformationKey>
        </DataArray>
      </Points>
      <Cells>
        <DataArray type="Int64" Name="connectivity" format="ascii" RangeMin="0" RangeMax="190">
          0 1 2 3 2 1
          4 2 3 5 4 3
          4 5 6 7 8 9
          10 9 8 11 12 13
          14 13 12 13 14 15
          16 17 18 19 18 17
          20 21 22 23 22 21
          24 25 26 27 26 25
          28 29 30 31 30 29
          10 32 33 34 33 32
          35 17 16 36 37 38
          39 38 37 11 40 41
          42 41 40 32 10 8
          43 44 24 45 24 44
          46 37 36 47 48 38
          49 38 48 50 22 23
          51 52 19 53 19 52
          54 55 56 57 56 55
          58 50 23 59 60 61
          62 61 60 63 64 65
          31 65 64 66 7 9
          67 63 65 68 67 65
          36 38 49 69 36 49
          66 58 23 70 71 72
          73 72 71 74 45 44
          75 71 70 76 45 77
          78 77 45 56 79 27
          80 27 79 81 20 22
          82 68 65 47 38 39
          76 25 24 83 84 85
          47 85 84 12 33 34
          86 69 49 41 33 12
          87 75 77 88 77 75
          76 24 45 89 90 91
          40 91 90 92 1 0
          48 93 94 90 94 93
          87 77 78 95 96 97
          17 97 96 98 75 87
          60 83 85 99 46 36
          44 28 30 54 25 76
          100 93 48 71 75 98
          85 47 39 101 21 20
          62 18 102 103 102 18
          58 66 9 78 45 74
          61 62 102 51 96 0
          92 0 96 104 105 61
          59 61 105 106 95 97
          17 96 51 83 60 59
          47 100 48 107 96 95
          96 107 92 108 14 12
          109 58 9 110 58 109
          49 48 94 111 59 105
          112 59 111 113 109 9
          22 114 112 83 112 114
          86 49 94 89 86 94
          115 62 60 116 117 113
          109 113 117 69 99 36
          99 69 118 119 109 117
          110 109 119 33 116 113
          112 83 59 114 84 83
          110 84 114 51 19 17
          76 77 88 16 62 115
          84 110 119 104 61 102
          120 121 8 32 8 121
          46 106 97 122 32 121
          93 117 116 88 54 76
          119 47 84 123 124 72
          125 72 124 126 26 27
          127 91 40 106 46 99
          128 129 73 123 73 129
          130 131 132 133 131 130
          68 133 130 134 71 98
          128 71 134 135 128 134
          136 135 134 137 64 63
          138 129 128 67 23 21
          37 16 115 115 60 85
          26 43 24 139 136 134
          139 134 98 103 18 19
          140 136 139 141 136 140
          94 90 89 142 104 102
          143 55 54 63 67 21
          144 87 78 11 41 12
          145 11 13 146 147 137
          148 137 147 149 65 31
          150 151 152 141 152 151
          153 55 154 125 154 55
          97 17 35 154 125 124
          155 23 67 156 139 98
          157 133 68 40 11 145
          155 67 68 158 144 78
          142 102 103 159 103 160
          103 159 142 161 135 151
          136 151 135 87 156 98
          88 75 70 141 151 136
          114 22 50 110 50 58
          81 112 111 74 158 78
          162 81 111 108 12 34
          16 18 62 163 144 164
          158 164 144 74 44 30
          155 66 23 165 145 13
          25 54 56 113 10 33
          156 144 163 127 40 145
          117 93 100 119 100 47
          166 74 30 87 144 156
          167 140 168 139 168 140
          128 73 71 63 21 101
          169 43 26 170 53 52
          171 170 52 122 34 32
          125 70 72 143 70 125
          64 30 31 115 39 37
          150 161 151 108 34 122
          172 173 174 169 174 173
          166 64 137 64 166 30
          103 19 53 158 74 166
          116 33 41 175 161 150
          176 173 172 177 176 172
          101 146 137 178 161 175
          179 180 177 176 177 180
          181 147 146 182 147 181
          126 80 183 80 126 27
          184 51 0 20 81 162
          181 20 162 163 167 168
          185 167 163 63 101 137
          112 81 22 37 35 16
          160 53 170 46 35 37
          149 82 65 116 41 42
          114 50 110 178 129 138
          148 164 158 103 53 160
          138 135 161 52 51 184
          97 35 46 132 120 186
          8 186 120 88 70 143
          7 186 8 20 181 146
          130 155 68 7 155 130
          55 143 125 187 188 189
          188 187 185 163 188 185
          164 148 147 189 164 147
          153 57 55 79 57 153
          130 186 7 88 143 54
          93 116 42 56 27 25
          9 10 113 135 138 128
          117 100 119 85 39 115
          2 184 0 127 145 165
          72 73 123 156 163 168
          4 171 190 52 190 171
          2 4 190 178 138 161
          156 168 139 90 42 40
          179 133 157 93 42 90
          28 169 173 164 188 163
          189 188 164 157 68 82
          180 179 157 7 66 155
          166 137 148 132 186 130
          20 146 101 166 148 158
          28 43 169 56 57 79
          29 173 176 173 29 28
          149 176 180 29 176 149
          184 190 52 44 43 28
          180 82 149 157 82 180
          29 149 31 2 190 184
          174 26 126 174 169 26
        </DataArray>
        <DataArray type="Int64" Name="offsets" format="ascii" RangeMin="3" RangeMax="954">
          3 6 9 12 15 18
          21 24 27 30 33 36
          39 42 45 48 51 54
          57 60 63 66 69 72
          75 78 81 84 87 90
          93 96 99 102 105 108
          111 114 117 120 123 126
          129 132 135 138 141 144
          147 150 153 156 159 162
          165 168 171 174 177 180
          183 186 189 192 195 198
          201 204 207 210 213 216
          219 222 225 228 231 234
          237 240 243 246 249 252
          255 258 261 264 267 270
          273 276 279 282 285 288
          291 294 297 300 303 306
          309 312 315 318 321 324
          327 330 333 336 339 342
          345 348 351 354 357 360
          363 366 369 372 375 378
          381 384 387 390 393 396
          399 402 405 408 411 414
          417 420 423 426 429 432
          435 438 441 444 447 450
          453 456 459 462 465 468
          471 474 477 480 483 486
          489 492 495 498 501 504
          507 510 513 516 519 522
          525 528 531 534 537 540
          543 546 549 552 555 558
          561 564 567 570 573 576
          579 582 585 588 591 594
          597 600 603 606 609 612
          615 618 621 624 627 630
          633 636 639 642 645 648
          651 654 657 660 663 666
          669 672 675 678 681 684
          687 690 693 696 699 702
          705 708 711 714 717 720
          723 726 729 732 735 738
          741 744 747 750 753 756
          759 762 765 768 771 774
          777 780 783 786 789 792
          795 798 801 804 807 810
          813 816 819 822 825 828
          831 834 837 840 843 846
          849 852 855 858 861 864
          867 870 873 876 879 882
          885 888 891 894 897 900
          903 906 909 912 915 918
          921 924 927 930 933 936
          939 942 945 948 951 954
        </DataArray>
        <DataArray type="UInt8" Name="types" format="ascii" RangeMin="5" RangeMax="5">
          5 5 5 5 5 5
          5 5 5 5 5 5
          5 5 5 5 5 5
          5 5 5 5 5 5
          5 5 5 5 5 5
          5 5 5 5 5 5
          5 5 5 5 5 5
          5 5 5 5 5 5
          5 5 5 5 5 5
          5 5 5 5 5 5
          5 5 5 5 5 5
          5 5 5 5 5 5
          5 5 5 5 5 5
          5 5 5 5 5 5
          5 5 5 5 5 5
          5 5 5 5 5 5
          5 5 5 5 5 5
          5 5 5 5 5 5
          5 5 5 5 5 5
          5 5 5 5 5 5
          5 5 5 5 5 5
          5 5 5 5 5 5
          5 5 5 5 5 5
          5 5 5 5 5 5
          5 5 5 5 5 5
          5 5 5 5 5 5
          5 5 5 5 5 5
          5 5 5 5 5 5
          5 5 5 5 5 5
          5 5 5 5 5 5
          5 5 5 5 5 5
          5 5 5 5 5 5
          5 5 5 5 5 5
          5 5 5 5 5 5
          5 5 5 5 5 5
          5 5 5 5 5 5
          5 5 5 5 5 5
          5 5 5 5 5 5
          5 5 5 5 5 5
          5 5 5 5 5 5
          5 5 5 5 5 5
          5 5 5 5 5 5
          5 5 5 5 5 5
          5 5 5 5 5 5
          5 5 5 5 5 5
          5 5 5 5 5 5
          5 5 5 5 5 5
          5 5 5 5 5 5
          5 5 5 5 5 5
          5 5 5 5 5 5
          5 5 5 5 5 5
          5 5 5 5 5 5
          5 5 5 5 5 5
        </DataArray>
      </Cells>
    </Piece>
  </UnstructuredGrid>
</VTKFile>
