<VTKFile type="UnstructuredGrid" version="1.0" byte_order="LittleEndian" header_type="UInt64">
  <UnstructuredGrid>
    <Piece NumberOfPoints="160" NumberOfCells="268">
      <PointData Scalars="bulk_node_ids">
        <DataArray type="UInt64" Name="bulk_node_ids" format="ascii" RangeMin="313" RangeMax="12562">
          624 623 622 625 827 826
          825 828 1001 1000 999 1002
          1584 1615 1616 1663 1769 1768
          1767 1770 2190 2282 1384 2281
          2283 2570 2567 2568 2582 2581
          2580 2583 876 2874 2875 3209
          3208 3207 3210 3241 3240 3239
          3242 3391 3447 3446 3448 3449
          3504 3503 3502 3505 3821 4122
          4262 4261 4362 4363 4460 4536
          4788 5149 5148 5150 5256 1684
          5255 3002 6027 313 6608 6607
          6609 6911 6910 6909 6912 6934
          6933 6932 6935 6964 6965 7036
          7035 7034 7111 7385 7524 7723
          7825 7864 7889 8071 8154 8181
          8185 8184 8183 8186 8195 8463
          8482 8518 8696 8709 8710 8774
          8884 8883 8885 8923 8922 8921
          874 8963 9168 9189 9198 9223
          9288 9344 9430 9429 9525 9930
          7735 3939 10730 10731 4237 4239
          11256 6125 11724 11746 11747 11649
          11770 11774 11775 11889 12034 878
          11650 12153 12180 487 1231 12215
          484 3883 12389 4295 7133 12482
          9896 9894 12562 7736
        </DataArray>
      </PointData>
      <CellData Scalars="MaterialIDs">
        <DataArray type="Int32" Name="submesh_id" format="ascii" RangeMin="1" RangeMax="1">
          1 1 1 1 1 1
          1 1 1 1 1 1
          1 1 1 1 1 1
          1 1 1 1 1 1
          1 1 1 1 1 1
          1 1 1 1 1 1
          1 1 1 1 1 1
          1 1 1 1 1 1
          1 1 1 1 1 1
          1 1 1 1 1 1
          1 1 1 1 1 1
          1 1 1 1 1 1
          1 1 1 1 1 1
          1 1 1 1 1 1
          1 1 1 1 1 1
          1 1 1 1 1 1
          1 1 1 1 1 1
          1 1 1 1 1 1
          1 1 1 1 1 1
          1 1 1 1 1 1
          1 1 1 1 1 1
          1 1 1 1 1 1
          1 1 1 1 1 1
          1 1 1 1 1 1
          1 1 1 1 1 1
          1 1 1 1 1 1
          1 1 1 1 1 1
          1 1 1 1 1 1
          1 1 1 1 1 1
          1 1 1 1 1 1
          1 1 1 1 1 1
          1 1 1 1 1 1
          1 1 1 1 1 1
          1 1 1 1 1 1
          1 1 1 1 1 1
          1 1 1 1 1 1
          1 1 1 1 1 1
          1 1 1 1 1 1
          1 1 1 1 1 1
          1 1 1 1 1 1
          1 1 1 1 1 1
          1 1 1 1 1 1
          1 1 1 1 1 1
          1 1 1 1 1 1
          1 1 1 1
        </DataArray>
        <DataArray type="Float64" Name="recharge" format="ascii" RangeMin="170" RangeMax="174">
          172 172 171 171 174 174
          173.856394447089 171 171 172.165629856118 172 172
          172 170.145030263542 170.503080591665 172 172 172
          171 174 174 172 172 171
          171 171 174 174 174 170.812625409511
          170.00286329813 174 174 172 172 171
          171 171 171 172 171 171
          172 172 172 172 171 170
          171 170.132050151008 171 171 172 172
          173.976711852153 172.000286321752 172 172 172.00185555092 172
          172 171 172 172.061891930363 171 172
          171 171 171 171 171 172
          172 172 172 172 172 171
          171.62008214581 172 172 172 172 172
          172 174 174 171 171 174
          172 172 172 172 172 172
          171 172 172 172 171 172
          172 172.000004282902 171 171 172 172
          172 172 172 171 172 172
          170.420880839396 171.015079346902 172 172 171.794228389978 172
          170.848725368344 170.837174620793 170.36274658365 172 171 171
          171.736468256146 172 171.809809095586 171.088111063783 172 171
          171 172 170 172 172 171.02237394277
          171 170.473306797641 172 171.017532553956 172 171.842159380757
          172.356550282224 174 172 172 172 172
          172.046408467137 172 171 172 172 172
          172 172 172 172 172 172
          172 173.999680351797 173.953474372741 173.999670153308 172 171
          171.99981307209 170 172 172 172 171
          172 172 170.312686491858 172 172 172
          172 171 174 171 174 174
          172 172 172 172 172 171
          172 170 170 170 170.405086799066 172
          170 171 174 174 172 170
          172 172 171 172 174 172
          171.999779359369 170 173.414752356518 174 172 171
          171 170.002356431198 172 171.528538388583 174 172
          171 170.757910622954 174 171 171 172
          171 172 174 172 172 171
          172 171 172 172 172 172
          172 174 170 171 174 171
          170.600756259392 171.829995893231 172 174 170 170
          171 172 171 172 171 172
          171 172 172 171.58691242543 170.732018939963 171
          172 171 171 170
        </DataArray>
        <DataArray type="UInt64" Name="bulk_element_ids" format="ascii" RangeMin="320" RangeMax="24704">
          320 321 433 434 537 538
          903 923 924 956 1032 1033
          1334 1397 1398 1613 1622 1623
          1687 1844 1845 2118 2119 2141
          2142 2271 2324 2325 2326 2375
          2376 2554 2678 2933 2938 3066
          3067 3162 3163 3256 3336 3491
          3582 3583 3954 3955 4094 4247
          5000 5669 5775 5776 6183 6184
          6217 6218 6254 6255 6357 6358
          6474 6554 6695 6749 6766 6900
          7127 7128 7199 7343 7438 7516
          7585 7640 7677 7950 8105 8145
          8150 8151 8165 8605 8636 8637
          8692 8973 8974 9003 9004 9042
          9094 9190 9241 9287 9288 9324
          9380 9383 9386 9387 9395 9465
          9785 9836 9840 9880 9902 9948
          10011 10066 10067 10087 10138 10155
          10267 10268 10291 10352 10399 10402
          10415 10480 10515 10915 10920 10999
          11037 11059 11121 11144 11149 11156
          11330 11452 11504 11629 11630 11771
          11924 12114 12121 12130 12248 12304
          12603 12679 13218 13230 13231 13232
          13327 13345 13457 13737 13753 14211
          15139 15140 15787 15790 16516 16842
          16948 16949 16950 16987 17046 17069
          17073 17631 17738 17830 17898 17996
          18045 18349 18360 18469 18515 18682
          18704 18732 18883 18890 18997 18998
          19021 19039 19059 19088 19192 19228
          19243 19438 19439 19440 19589 19745
          19849 19876 20016 20153 20396 20572
          20684 20719 20727 20849 21083 21198
          21268 21329 21352 21444 21480 21619
          21650 21670 21711 21725 21757 21768
          21822 21831 21859 21890 21891 21976
          22097 22124 22192 22293 22488 22504
          22507 22541 22560 22561 22629 22633
          22812 22897 23060 23061 23205 23282
          23284 23383 23427 23486 23549 23564
          23652 23691 23751 23762 23896 23993
          24206 24229 24247 24302 24355 24413
          24453 24569 24695 24704
        </DataArray>
        <DataArray type="Int32" Name="MaterialIDs" format="ascii" RangeMin="0" RangeMax="1">
          0 0 0 0 0 0
          0 0 0 0 0 0
          0 1 1 0 0 0
          0 0 0 0 0 0
          0 0 0 0 0 0
          0 0 0 0 0 0
          0 0 0 0 0 0
          0 0 1 1 1 1
          0 1 0 0 0 0
          0 0 0 0 0 0
          0 1 0 0 0 0
          1 0 0 1 0 0
          0 0 0 0 0 0
          0 0 0 0 0 0
          0 0 0 0 0 0
          0 0 0 0 0 0
          0 0 0 0 0 0
          0 0 0 1 0 0
          0 0 0 1 0 0
          0 0 0 0 0 0
          0 1 1 0 0 0
          0 0 0 0 0 0
          1 0 0 0 0 0
          0 0 0 0 0 0
          0 0 0 1 1 1
          0 0 0 0 0 0
          0 0 0 0 0 0
          0 0 0 1 0 1
          0 0 0 0 0 1
          0 0 1 0 0 0
          0 0 0 0 1 0
          0 0 0 1 0 0
          0 1 1 1 1 0
          1 1 0 1 0 1
          0 0 0 0 0 0
          0 1 0 0 0 0
          1 1 0 0 0 0
          0 1 0 1 1 0
          0 0 0 0 0 1
          1 0 0 0 0 0
          0 0 1 1 0 1
          1 0 0 0 1 1
          0 0 0 0 0 0
          1 0 0 0 1 0
          0 0 0 1
        </DataArray>
      </CellData>
      <Points>
        <DataArray type="Float64" Name="Points" NumberOfComponents="3" format="ascii" RangeMin="7269601.940275754" RangeMax="7271483.253213405">
          4459185.5 5743066 108 4459118 5743153 105
          4459081 5743015 109 4458994 5743107 94
          4458616 5742346 99 4458633 5742453 96
          4458508.5 5742381 97 4458528.5 5742503.5 97
          4459287 5743625 113 4459230.5 5743550.5 109
          4459369.5 5743543 112 4459305 5743463 108
          4459201.5 5743674 113 4458650.5 5742560 96
          4458542 5742622 99 4459128 5743608 107
          4458849.5 5743474 98 4458935.5 5743526 101
          4458825.5 5743623.5 102 4458957.5 5743636.5 103
          4458765 5743522 100 4458124.5 5742535.5 97
          4458075.5 5742398.5 99 4458211 5742466 98
          4458207.5 5742352 98 4458613.5 5743342 96
          4458711.5 5743419.5 97 4458560.5 5743426.5 97
          4458050 5743220.5 94 4458057 5743331.5 95
          4457949.5 5743287 95 4457955.5 5743400.5 97
          4458659 5742684 101 4459394.5 5743402.5 110
          4459452.5 5743460.5 112 4458491.5 5743323 96
          4458437 5743456 98 4458359.5 5743372 97
          4458313.5 5743485.5 98 4458581 5742247.5 107
          4458483.5 5742267.5 96 4458546.5 5742148.5 104
          4458461.5 5742172.5 96 4458555.5 5742752 99
          4459406 5743321.5 110 4459526.5 5743382 112
          4459496 5743276 112 4459401 5743229 110
          4458033.5 5742978.5 93 4457923 5742938 94
          4458028 5742862 94 4457940 5742825.5 95
          4459470 5743182 111 4459116.5 5743723.5 115
          4458391.5 5742122 96 4458495.5 5742045 100
          4458444 5742697 94 4458430 5742569.5 94
          4457935 5743164.5 93 4458331.5 5742642 94
          4458817.5 5743355.5 96 4457808.5 5743162 94
          4457856 5743056.5 93 4457960.5 5743045.5 93
          4458290.5 5742173 98 4458180.5 5742172 103
          4458235 5742060 106 4458025 5742513 100
          4458417 5742449.5 97 4458126 5742284.5 102
          4458402.5 5742334.5 98 4458311 5742401 98
          4458320.5 5742518.5 96 4459026.5 5743457.5 98
          4458927 5743407 97 4459019 5743342.5 95
          4458914 5743290.5 95 4459311.5 5743279 107
          4459215 5743332.5 105 4459213.5 5743231 107
          4459114 5743281 97 4458807 5743236 94
          4458708 5743297 96 4459218 5743438.5 106
          4459127 5743505.5 104 4459121 5743394 100
          4458267 5743406.5 97 4458696.5 5743180.5 94
          4458222.5 5742589.5 95 4458341 5742767.5 93
          4459010.5 5743225 93 4458905 5743175 94
          4458886 5743724.5 109 4458595.5 5743245 95
          4459037 5743563.5 103 4458407 5742040 95
          4458562 5742877 99 4458569 5743001.5 99
          4458462.5 5742947 99 4458472 5743071 93
          4458047.5 5743101 92 4458960 5743000.5 108
          4458794.5 5743099 97 4458676.5 5743057 98
          4459313 5743380 108 4458453 5742822.5 94
          4458350.5 5742892.5 93 4458585 5743125.5 93
          4458145 5743032 92 4458154 5743155.5 92
          4458256.5 5743086 92 4458265 5743203.5 93
          4458376 5743253.5 95 4458263.5 5743313.5 95
          4458668 5742808 106 4458248 5742962.5 92
          4458238.5 5742838 92 4458229.5 5742713.5 94
          4458482.5 5743191.5 94 4458359.5 5743016.5 92
          4458159.5 5743270 95 4458370 5743136.5 93
          4458129 5742784 94 4458136 5742908.5 93
          4458131.5 5742658 96 4458304.5 5742292.5 98
          4458073 5743437.5 97 4457695.5 5743177 104
          4457742 5743065 104 4457788.5 5742953 100
          4457766.5 5743270.5 96 4457837.5 5743363.5 97
          4458745.5 5742991 97 4458838.5 5742985.5 97
          4459214 5743140.5 108 4459056 5743657 108
          4459316.5 5743190 110 4459290 5743117 109
          4459001.5 5743724 112 4458320.5 5742080.5 96
          4458657 5742933.5 98 4458024.5 5742727.5 95
          4458894.5 5743073 95 4458753.5 5742897 103
          4459392 5743111 111 4457856.5 5743247.5 95
          4458392.5 5742227 97 4457918 5742739 97
          4457971.5 5742626 98 4458055.5 5742612 97
          4457853.5 5742846 95 4459494 5743105.5 112
          4458547 5742313 97 4459547 5743204.5 112
          4459600 5743303.5 113 4458213.5 5742257.5 98
          4458340 5742001 99 4458444.5 5741942 95
          4458161.5 5743372 96 4458193.5 5743461.5 97
          <InformationKey name="L2_NORM_RANGE" location="vtkDataArray" length="2">
            <Value index="0">
              7269601.9403
            </Value>
            <Value index="1">
              7271483.2532
            </Value>
          </InformationKey>
          <InformationKey name="L2_NORM_FINITE_RANGE" location="vtkDataArray" length="2">
            <Value index="0">
              7269601.9403
            </Value>
            <Value index="1">
              7271483.2532
            </Value>
          </InformationKey>
        </DataArray>
      </Points>
      <Cells>
        <DataArray type="Int64" Name="connectivity" format="ascii" RangeMin="0" RangeMax="159">
          0 1 2 3 2 1
          4 5 6 7 6 5
          8 9 10 11 10 9
          12 9 8 13 7 5
          14 7 13 15 9 12
          16 17 18 19 18 17
          16 18 20 21 22 23
          24 23 22 25 26 27
          28 29 30 31 30 29
          32 14 13 33 10 11
          34 10 33 35 36 37
          38 37 36 39 40 41
          42 41 40 43 14 32
          33 44 45 46 45 44
          47 46 44 48 49 50
          51 50 49 34 33 45
          52 46 47 27 36 35
          53 15 12 54 55 42
          41 42 55 56 14 43
          57 14 56 58 28 30
          59 57 56 7 14 57
          26 16 20 60 16 26
          61 62 58 63 58 62
          64 65 66 21 67 22
          68 6 7 24 22 69
          70 68 71 72 71 68
          73 74 75 76 75 74
          77 78 79 80 79 78
          76 60 81 82 81 60
          83 84 85 73 85 84
          86 37 38 23 71 72
          74 60 76 78 83 85
          6 68 70 87 81 82
          88 72 59 57 59 72
          68 7 57 23 72 88
          89 59 56 85 73 75
          90 3 1 91 3 90
          92 18 19 93 87 82
          94 73 84 95 55 54
          96 97 98 99 98 97
          100 28 58 101 2 3
          102 81 87 91 81 102
          103 102 87 104 78 77
          44 104 77 105 89 56
          106 89 105 83 78 104
          107 87 93 91 76 81
          103 87 107 100 108 109
          110 109 108 90 75 76
          57 72 68 107 99 97
          111 112 113 37 113 112
          43 32 114 115 110 108
          80 75 90 80 78 85
          116 89 106 117 59 89
          118 107 93 119 110 115
          28 100 109 111 109 110
          120 109 111 88 59 117
          121 111 110 120 28 109
          122 116 123 115 123 116
          90 76 91 121 110 119
          106 119 115 97 103 107
          117 116 122 124 88 117
          124 117 122 99 107 118
          96 43 114 89 116 117
          98 119 106 48 108 100
          123 115 108 116 106 115
          99 121 119 105 56 43
          125 70 71 99 119 98
          50 122 123 1 79 80
          118 121 99 98 106 105
          105 43 96 48 50 123
          126 31 29 98 105 96
          35 118 93 123 108 48
          9 84 83 47 44 77
          80 85 75 127 128 61
          62 61 128 129 62 128
          15 84 9 17 74 73
          40 6 70 90 1 80
          61 130 127 30 31 131
          132 102 103 133 102 132
          112 35 37 17 73 94
          63 49 48 134 1 0
          135 15 53 136 77 79
          134 136 79 137 136 134
          138 92 19 139 64 66
          140 103 97 141 122 50
          26 82 60 16 60 74
          112 111 121 24 125 71
          63 100 58 142 3 91
          21 88 124 19 17 94
          142 102 133 112 118 35
          15 94 84 140 114 143
          11 9 83 140 96 114
          136 137 144 47 136 144
          25 27 35 135 19 94
          145 61 58 49 62 129
          142 101 3 146 70 125
          25 35 93 51 141 50
          141 147 148 149 141 148
          150 49 129 145 131 130
          124 141 149 24 71 23
          52 47 144 52 144 151
          145 30 131 141 124 122
          135 138 19 25 82 26
          152 6 40 135 53 138
          46 153 154 29 28 120
          132 103 140 51 147 141
          134 0 137 45 46 154
          134 79 1 152 4 6
          155 65 64 51 49 150
          112 121 118 140 97 96
          52 153 46 113 120 111
          40 70 146 21 23 88
          52 151 153 64 146 125
          54 146 64 142 91 102
          95 156 157 145 58 30
          11 83 104 142 133 101
          16 74 17 155 64 125
          63 62 49 95 157 55
          158 120 113 86 158 113
          158 159 126 63 48 100
          25 93 82 33 11 104
          149 21 124 155 125 24
          33 104 44 139 66 156
          155 69 65 132 143 133
          86 38 159 136 47 77
          51 150 147 149 148 67
          42 40 146 135 94 15
          152 39 4 145 130 61
          42 146 54 86 159 158
          139 54 64 86 113 37
          158 126 29 132 140 143
          155 24 69 152 40 39
          158 29 120 139 95 54
          139 156 95 149 67 21
        </DataArray>
        <DataArray type="Int64" Name="offsets" format="ascii" RangeMin="3" RangeMax="804">
          3 6 9 12 15 18
          21 24 27 30 33 36
          39 42 45 48 51 54
          57 60 63 66 69 72
          75 78 81 84 87 90
          93 96 99 102 105 108
          111 114 117 120 123 126
          129 132 135 138 141 144
          147 150 153 156 159 162
          165 168 171 174 177 180
          183 186 189 192 195 198
          201 204 207 210 213 216
          219 222 225 228 231 234
          237 240 243 246 249 252
          255 258 261 264 267 270
          273 276 279 282 285 288
          291 294 297 300 303 306
          309 312 315 318 321 324
          327 330 333 336 339 342
          345 348 351 354 357 360
          363 366 369 372 375 378
          381 384 387 390 393 396
          399 402 405 408 411 414
          417 420 423 426 429 432
          435 438 441 444 447 450
          453 456 459 462 465 468
          471 474 477 480 483 486
          489 492 495 498 501 504
          507 510 513 516 519 522
          525 528 531 534 537 540
          543 546 549 552 555 558
          561 564 567 570 573 576
          579 582 585 588 591 594
          597 600 603 606 609 612
          615 618 621 624 627 630
          633 636 639 642 645 648
          651 654 657 660 663 666
          669 672 675 678 681 684
          687 690 693 696 699 702
          705 708 711 714 717 720
          723 726 729 732 735 738
          741 744 747 750 753 756
          759 762 765 768 771 774
          777 780 783 786 789 792
          795 798 801 804
        </DataArray>
        <DataArray type="UInt8" Name="types" format="ascii" RangeMin="5" RangeMax="5">
          5 5 5 5 5 5
          5 5 5 5 5 5
          5 5 5 5 5 5
          5 5 5 5 5 5
          5 5 5 5 5 5
          5 5 5 5 5 5
          5 5 5 5 5 5
          5 5 5 5 5 5
          5 5 5 5 5 5
          5 5 5 5 5 5
          5 5 5 5 5 5
          5 5 5 5 5 5
          5 5 5 5 5 5
          5 5 5 5 5 5
          5 5 5 5 5 5
          5 5 5 5 5 5
          5 5 5 5 5 5
          5 5 5 5 5 5
          5 5 5 5 5 5
          5 5 5 5 5 5
          5 5 5 5 5 5
          5 5 5 5 5 5
          5 5 5 5 5 5
          5 5 5 5 5 5
          5 5 5 5 5 5
          5 5 5 5 5 5
          5 5 5 5 5 5
          5 5 5 5 5 5
          5 5 5 5 5 5
          5 5 5 5 5 5
          5 5 5 5 5 5
          5 5 5 5 5 5
          5 5 5 5 5 5
          5 5 5 5 5 5
          5 5 5 5 5 5
          5 5 5 5 5 5
          5 5 5 5 5 5
          5 5 5 5 5 5
          5 5 5 5 5 5
          5 5 5 5 5 5
          5 5 5 5 5 5
          5 5 5 5 5 5
          5 5 5 5 5 5
          5 5 5 5 5 5
          5 5 5 5
        </DataArray>
      </Cells>
    </Piece>
  </UnstructuredGrid>
</VTKFile>
