<VTKFile type="UnstructuredGrid" version="1.0" byte_order="LittleEndian" header_type="UInt64">
  <UnstructuredGrid>
    <Piece NumberOfPoints="52" NumberOfCells="76">
      <PointData Scalars="bulk_node_ids">
        <DataArray type="UInt64" Name="bulk_node_ids" format="ascii" RangeMin="402" RangeMax="12600">
          404 403 402 405 1287 1286
          1285 1288 2469 2468 2467 2470
          2622 2918 2917 2916 2919 3029
          3028 3030 2011 546 3055 3323
          3322 3321 3324 3396 549 3591
          3816 4123 4207 4206 4375 4374
          4373 4709 4835 4834 5791 3823
          1792 9922 9923 6154 11398 12311
          1790 11391 12600 3460
        </DataArray>
      </PointData>
      <CellData Scalars="MaterialIDs">
        <DataArray type="Int32" Name="submesh_id" format="ascii" RangeMin="2" RangeMax="2">
          2 2 2 2 2 2
          2 2 2 2 2 2
          2 2 2 2 2 2
          2 2 2 2 2 2
          2 2 2 2 2 2
          2 2 2 2 2 2
          2 2 2 2 2 2
          2 2 2 2 2 2
          2 2 2 2 2 2
          2 2 2 2 2 2
          2 2 2 2 2 2
          2 2 2 2 2 2
          2 2 2 2
        </DataArray>
        <DataArray type="Float64" Name="recharge" format="ascii" RangeMin="173" RangeMax="175">
          175 175 175 175 173 173
          173 175 175 175 175 175
          175 175 175 175 175 175
          175 175 175 174.506595921905 173 173
          173 173 175 173 175 174.328274298453
          175 173.449295370144 175 175 175 175
          175 175 175 175 175 173.565292620286
          173 175 175 173 173.55450490357 173
          175 175 174.621450957689 175 173 173
          175 175 175 175 173 175
          173 173 173 173 175 175
          173 175 173 175 175 173
          173 175 173 173
        </DataArray>
        <DataArray type="UInt64" Name="bulk_element_ids" format="ascii" RangeMin="203" RangeMax="24975">
          203 204 705 706 1539 1540
          1653 1873 1874 1959 1960 1979
          1980 2211 2212 2277 2388 2389
          2466 2674 2727 2941 3016 3017
          3173 3174 3517 3634 3939 4677
          4678 5533 6001 6002 6159 6587
          6999 7451 8507 9317 10065 11312
          11313 13168 14776 14914 15287 15665
          16738 16932 16940 17696 18224 18225
          20087 20249 21875 22277 23135 23201
          23214 23230 23231 23412 23512 23611
          23744 23861 24202 24304 24411 24622
          24677 24902 24974 24975
        </DataArray>
        <DataArray type="Int32" Name="MaterialIDs" format="ascii" RangeMin="1" RangeMax="4">
          4 4 4 4 1 1
          1 4 4 1 1 1
          1 1 1 1 1 1
          4 4 4 1 1 1
          1 1 1 1 4 1
          1 1 4 4 1 1
          4 4 4 4 4 1
          1 1 1 1 1 1
          4 1 1 4 1 1
          4 4 1 4 1 4
          1 1 1 1 4 1
          1 4 1 4 4 1
          1 4 1 1
        </DataArray>
      </CellData>
      <Points>
        <DataArray type="Float64" Name="Points" NumberOfComponents="3" format="ascii" RangeMin="7268613.483075916" RangeMax="7269209.45008699">
          4461345 5738392 108 4461400.5 5738476 102
          4461277.5 5738467 107 4461358.5 5738550.5 103
          4461237 5738921.5 103 4461296 5738832 102
          4461363.5 5738944 107 4461411 5738839 108
          4461007.5 5739178.5 105 4460985.5 5739256.5 104
          4460933 5739138.5 105 4460869 5739237.5 106
          4460910.5 5739326 105 4461472.5 5738735 110
          4461410 5738640.5 102 4461533.5 5738631.5 102
          4461460 5738555 102 4461193.5 5739036.5 105
          4461120 5738928 102 4461086.5 5739030 103
          4461010 5738902.5 107 4461071.5 5738820.5 107
          4461182 5738826 103 4461210.5 5738541.5 107
          4461290 5738625 105 4461171.5 5738640 105
          4461236.5 5738731.5 104 4461047 5738970 103
          4461133 5738738 106 4461354 5738735 102
          4461284 5738546 107 4461130 5739119 102
          4460916 5739401.5 107 4461027.5 5739354.5 107
          4461220 5739200 107 4461150 5739191 107
          4461219.5 5739122.5 105 4461266 5738992.5 105
          4461063 5739282.5 107 4461139 5739307 108
          4461315.5 5739049 112 4461551.5 5738535 103
          4461457.5 5738415.5 102 4461033.5 5739115.5 106
          4461078.5 5739204 103 4460971.5 5739020.5 105
          4461179.5 5739253.5 108 4461503 5738476.5 103
          4461569.5 5738439 105 4460860 5739369 106
          4461119 5739249.5 107 4460804.5 5739336.5 106
          <InformationKey name="L2_NORM_RANGE" location="vtkDataArray" length="2">
            <Value index="0">
              7268613.4831
            </Value>
            <Value index="1">
              7269209.4501
            </Value>
          </InformationKey>
          <InformationKey name="L2_NORM_FINITE_RANGE" location="vtkDataArray" length="2">
            <Value index="0">
              7268613.4831
            </Value>
            <Value index="1">
              7269209.4501
            </Value>
          </InformationKey>
        </DataArray>
      </Points>
      <Cells>
        <DataArray type="Int64" Name="connectivity" format="ascii" RangeMin="0" RangeMax="51">
          0 1 2 3 2 1
          4 5 6 7 6 5
          8 9 10 11 10 9
          12 11 9 13 14 15
          16 15 14 4 17 18
          19 18 17 20 21 18
          22 18 21 23 24 25
          26 25 24 27 20 18
          5 22 26 28 26 22
          29 7 5 30 24 23
          13 7 29 31 19 17
          32 12 33 9 33 12
          34 35 36 31 36 35
          37 17 4 38 39 33
          14 13 29 36 17 40
          37 40 17 36 31 17
          24 14 29 3 14 24
          4 18 22 4 22 5
          16 41 15 37 4 6
          26 24 29 42 1 0
          29 5 26 43 19 31
          44 43 31 25 26 28
          22 21 28 35 44 31
          43 10 45 46 35 34
          30 2 3 27 45 20
          19 43 45 16 14 3
          38 9 44 8 44 9
          47 42 48 40 37 6
          27 19 45 30 3 24
          38 33 9 47 41 16
          12 32 49 50 35 46
          39 50 46 8 43 44
          30 23 2 27 18 19
          50 39 38 41 47 48
          8 10 43 1 16 3
          47 16 1 50 44 35
          50 38 44 47 1 42
          12 51 11 12 49 51
        </DataArray>
        <DataArray type="Int64" Name="offsets" format="ascii" RangeMin="3" RangeMax="228">
          3 6 9 12 15 18
          21 24 27 30 33 36
          39 42 45 48 51 54
          57 60 63 66 69 72
          75 78 81 84 87 90
          93 96 99 102 105 108
          111 114 117 120 123 126
          129 132 135 138 141 144
          147 150 153 156 159 162
          165 168 171 174 177 180
          183 186 189 192 195 198
          201 204 207 210 213 216
          219 222 225 228
        </DataArray>
        <DataArray type="UInt8" Name="types" format="ascii" RangeMin="5" RangeMax="5">
          5 5 5 5 5 5
          5 5 5 5 5 5
          5 5 5 5 5 5
          5 5 5 5 5 5
          5 5 5 5 5 5
          5 5 5 5 5 5
          5 5 5 5 5 5
          5 5 5 5 5 5
          5 5 5 5 5 5
          5 5 5 5 5 5
          5 5 5 5 5 5
          5 5 5 5 5 5
          5 5 5 5
        </DataArray>
      </Cells>
    </Piece>
  </UnstructuredGrid>
</VTKFile>
