<VTKFile type="UnstructuredGrid" version="1.0" byte_order="LittleEndian" header_type="UInt64">
  <UnstructuredGrid>
    <Piece NumberOfPoints="76" NumberOfCells="75">
      <PointData Scalars="bulk_node_ids">
        <DataArray type="UInt64" Name="bulk_node_ids" format="ascii" RangeMin="192" RangeMax="12632">
          221 220 232 451 508 507
          544 809 808 1180 1179 2654
          2634 2692 3921 3920 3950 2779
          4024 4023 4105 4104 4403 4402
          4926 4925 4934 4950 4949 2738
          4995 4994 5067 5304 5315 5314
          5411 5456 5460 5459 5728 4920
          6052 6226 6860 7207 7206 7627
          7626 8892 8891 8919 9287 9537
          9536 10756 11254 11645 11709 11708
          5552 12007 12006 12070 12105 12304
          12323 12358 192 12473 12511 12592
          12613 12629 12632 12631
        </DataArray>
      </PointData>
      <CellData Scalars="MaterialIDs">
        <DataArray type="Int32" Name="submesh_id" format="ascii" RangeMin="6" RangeMax="6">
          6 6 6 6 6 6
          6 6 6 6 6 6
          6 6 6 6 6 6
          6 6 6 6 6 6
          6 6 6 6 6 6
          6 6 6 6 6 6
          6 6 6 6 6 6
          6 6 6 6 6 6
          6 6 6 6 6 6
          6 6 6 6 6 6
          6 6 6 6 6 6
          6 6 6 6 6 6
          6 6 6
        </DataArray>
        <DataArray type="Float64" Name="recharge" format="ascii" RangeMin="168.048528559996" RangeMax="260">
          243.036720902733 185 191 179.238114564298 173.000714648508 226.684454437092
          175.058237335763 207.239003961283 185 193.033967385246 260 180
          180 210.345467383357 204.026134031047 168.219184386707 226.769308707603 177
          205.263928828687 208 237 206.205900409014 180 195.407099467499
          210.451478200658 213.838567183094 187.422431975966 259.621785860366 233.460163126009 185
          213.980068130587 185 178 207.117815847528 178 240.461933707888
          246 177 178 169 225 185.502453801644
          225 184.801439574908 180.373633912873 178 185 193.658759230488
          191 174.634833983414 193.656219435708 177 193.167519703351 197.993136344054
          183.565795716882 174 169 183.697723343689 253.508043128616 199.681689424941
          227.092832286507 169 255 237 171.375790458047 255
          174.177525487073 228.577215108433 171 177 168.048528559996 171
          171 169.608067858104 180
        </DataArray>
        <DataArray type="UInt64" Name="bulk_element_ids" format="ascii" RangeMin="109" RangeMax="24952">
          109 228 258 278 424 642
          1676 1704 2768 2792 2858 2924
          3200 3735 3744 3755 3783 3800
          3880 4156 4169 4274 4319 4323
          4613 4909 5037 5250 6120 6647
          6725 7034 7301 8666 9304 9382
          10062 10492 11560 13309 15138 16432
          16545 16785 16839 17266 17937 18117
          18524 18757 18847 19360 19663 19731
          19860 20060 20150 20227 20466 20581
          20608 20673 21523 21729 21860 22078
          23111 23160 23532 23576 23902 24024
          24168 24256 24952
        </DataArray>
        <DataArray type="Int32" Name="MaterialIDs" format="ascii" RangeMin="2" RangeMax="7">
          5 5 5 5 4 2
          4 5 5 2 5 5
          5 2 5 4 2 3
          2 5 7 2 5 5
          2 2 3 5 5 2
          2 2 5 2 4 5
          5 4 4 5 5 4
          5 5 5 5 5 5
          7 5 5 5 2 7
          7 5 4 5 5 3
          7 5 7 5 5 7
          4 5 5 5 4 5
          5 5 5
        </DataArray>
      </CellData>
      <Points>
        <DataArray type="Float64" Name="Points" NumberOfComponents="3" format="ascii" RangeMin="7256058.509803738" RangeMax="7282256.996573675">
          4457642 5727081 179 4457887.5 5727466 172
          4469858 5736555.5 86 4470204.5 5736757 87
          4468030 5735621.5 92 4468475.5 5735712 91
          4468921 5735802.5 92 4473883 5745138.5 68
          4473485.5 5745840.5 65 4460441.5 5730449.5 145
          4460472.5 5730897.5 147 4473088 5746542.5 64
          4461259.5 5735853 122 4461668 5735829 131
          4470403 5737107.5 85 4470601.5 5737458 84
          4460619 5732146 136 4460709 5732501 136
          4459604.5 5728917 160 4459877.5 5729225.5 156
          4471932 5738488.5 80 4472057 5738953 78
          4471196.5 5738038.5 82 4471564.5 5738263.5 80
          4461372.5 5733347.5 131 4461431 5733779 130
          4461317.5 5735424.5 125 4473260 5742545.5 70
          4473506 5742958 70 4460503.5 5731346 147
          4462454 5735550 111 4462832 5735295.5 108
          4461376 5734996 128 4462076.5 5735805 120
          4458673.5 5727945.5 168 4459002 5728277 168
          4460561 5731746 139 4470899 5737748.5 83
          4469216.5 5736078.5 89 4469511.5 5736354.5 88
          4461433 5734603 133 4461490 5734210.5 127
          4463221.5 5735035.5 107 4459331 5728608.5 170
          4458280.5 5727705.5 178 4460798.5 5732856 133
          4461085.5 5733102 132 4464517 5734466.5 101
          4464874.5 5734750.5 104 4463611 5734775.5 104
          4464064 5734621 102 4459947.5 5729584.5 167
          4457396 5726696.5 176 4473972.5 5743869 67
          4473842 5744350 67 4474103.5 5743388 68
          4460017 5729943 152 4460229.5 5730196.5 148
          4465727.5 5735023 96 4466223 5735011 95
          4465232 5735035 98 4466686 5735123 95
          4467148.5 5735235.5 94 4467589.5 5735428.5 93
          4472181.5 5739417.5 78 4472292 5739895.5 77
          4473804.5 5743173 69 4457558 5726288.5 189
          4457374.5 5725574 187 4457719.5 5725880.5 184
          4472402 5740373 75 4473862.5 5744744.5 67
          4472582 5740815.5 74 4473014 5742132.5 71
          4472762 5741258.5 73 4472888 5741695.5 72
          <InformationKey name="L2_NORM_RANGE" location="vtkDataArray" length="2">
            <Value index="0">
              7256058.5098
            </Value>
            <Value index="1">
              7282256.9966
            </Value>
          </InformationKey>
          <InformationKey name="L2_NORM_FINITE_RANGE" location="vtkDataArray" length="2">
            <Value index="0">
              7256058.5098
            </Value>
            <Value index="1">
              7282256.9966
            </Value>
          </InformationKey>
        </DataArray>
      </Points>
      <Cells>
        <DataArray type="Int64" Name="connectivity" format="ascii" RangeMin="0" RangeMax="75">
          0 1 2 3 4 5
          5 6 7 8 9 10
          8 11 12 13 14 15
          16 17 18 19 20 21
          22 23 24 25 26 12
          27 28 10 29 30 31
          32 26 13 33 34 35
          36 16 37 22 38 39
          40 32 25 41 31 42
          43 18 1 44 45 46
          41 40 17 45 47 48
          29 36 49 50 19 51
          52 0 53 54 50 47
          55 53 51 56 42 49
          56 57 58 59 60 58
          48 60 3 14 61 62
          63 4 21 64 39 2
          6 38 46 24 62 63
          15 37 64 65 28 66
          59 61 67 52 33 30
          35 43 66 55 68 69
          44 34 65 70 69 67
          71 7 57 9 70 72
          54 71 73 27 74 75
          72 74 75 73 23 20
        </DataArray>
        <DataArray type="Int64" Name="offsets" format="ascii" RangeMin="2" RangeMax="150">
          2 4 6 8 10 12
          14 16 18 20 22 24
          26 28 30 32 34 36
          38 40 42 44 46 48
          50 52 54 56 58 60
          62 64 66 68 70 72
          74 76 78 80 82 84
          86 88 90 92 94 96
          98 100 102 104 106 108
          110 112 114 116 118 120
          122 124 126 128 130 132
          134 136 138 140 142 144
          146 148 150
        </DataArray>
        <DataArray type="UInt8" Name="types" format="ascii" RangeMin="3" RangeMax="3">
          3 3 3 3 3 3
          3 3 3 3 3 3
          3 3 3 3 3 3
          3 3 3 3 3 3
          3 3 3 3 3 3
          3 3 3 3 3 3
          3 3 3 3 3 3
          3 3 3 3 3 3
          3 3 3 3 3 3
          3 3 3 3 3 3
          3 3 3 3 3 3
          3 3 3 3 3 3
          3 3 3
        </DataArray>
      </Cells>
    </Piece>
  </UnstructuredGrid>
</VTKFile>
